 Entering Gaussian System, Link 0=g09
 Initial command:
 /cm/shared/c3ddb/gaussian/09.d01/g09/l1.exe "/scratch/users/duminda/g09/a1691-7322581/Gau-25353.inp" -scrdir="/scratch/users/duminda/g09/a1691-7322581/"
 Entering Link 1 = /cm/shared/c3ddb/gaussian/09.d01/g09/l1.exe PID=     25354.
  
 Copyright (c) 1988,1990,1992,1993,1995,1998,2003,2009,2013,
            Gaussian, Inc.  All Rights Reserved.
  
 This is part of the Gaussian(R) 09 program.  It is based on
 the Gaussian(R) 03 system (copyright 2003, Gaussian, Inc.),
 the Gaussian(R) 98 system (copyright 1998, Gaussian, Inc.),
 the Gaussian(R) 94 system (copyright 1995, Gaussian, Inc.),
 the Gaussian 92(TM) system (copyright 1992, Gaussian, Inc.),
 the Gaussian 90(TM) system (copyright 1990, Gaussian, Inc.),
 the Gaussian 88(TM) system (copyright 1988, Gaussian, Inc.),
 the Gaussian 86(TM) system (copyright 1986, Carnegie Mellon
 University), and the Gaussian 82(TM) system (copyright 1983,
 Carnegie Mellon University). Gaussian is a federally registered
 trademark of Gaussian, Inc.
  
 This software contains proprietary and confidential information,
 including trade secrets, belonging to Gaussian, Inc.
  
 This software is provided under written license and may be
 used, copied, transmitted, or stored only in accord with that
 written license.
  
 The following legend is applicable only to US Government
 contracts under FAR:
  
                    RESTRICTED RIGHTS LEGEND
  
 Use, reproduction and disclosure by the US Government is
 subject to restrictions as set forth in subparagraphs (a)
 and (c) of the Commercial Computer Software - Restricted
 Rights clause in FAR 52.227-19.
  
 Gaussian, Inc.
 340 Quinnipiac St., Bldg. 40, Wallingford CT 06492
  
  
 ---------------------------------------------------------------
 Warning -- This program may not be used in any manner that
 competes with the business of Gaussian, Inc. or will provide
 assistance to any competitor of Gaussian, Inc.  The licensee
 of this program is prohibited from giving any competitor of
 Gaussian, Inc. access to this program.  By using this program,
 the user acknowledges that Gaussian, Inc. is engaged in the
 business of creating and licensing software in the field of
 computational chemistry and represents and warrants to the
 licensee that it is not a competitor of Gaussian, Inc. and that
 it will not use this program in any manner prohibited above.
 ---------------------------------------------------------------
  

 Cite this work as:
 Gaussian 09, Revision D.01,
 M. J. Frisch, G. W. Trucks, H. B. Schlegel, G. E. Scuseria, 
 M. A. Robb, J. R. Cheeseman, G. Scalmani, V. Barone, B. Mennucci, 
 G. A. Petersson, H. Nakatsuji, M. Caricato, X. Li, H. P. Hratchian, 
 A. F. Izmaylov, J. Bloino, G. Zheng, J. L. Sonnenberg, M. Hada, 
 M. Ehara, K. Toyota, R. Fukuda, J. Hasegawa, M. Ishida, T. Nakajima, 
 Y. Honda, O. Kitao, H. Nakai, T. Vreven, J. A. Montgomery, Jr., 
 J. E. Peralta, F. Ogliaro, M. Bearpark, J. J. Heyd, E. Brothers, 
 K. N. Kudin, V. N. Staroverov, T. Keith, R. Kobayashi, J. Normand, 
 K. Raghavachari, A. Rendell, J. C. Burant, S. S. Iyengar, J. Tomasi, 
 M. Cossi, N. Rega, J. M. Millam, M. Klene, J. E. Knox, J. B. Cross, 
 V. Bakken, C. Adamo, J. Jaramillo, R. Gomperts, R. E. Stratmann, 
 O. Yazyev, A. J. Austin, R. Cammi, C. Pomelli, J. W. Ochterski, 
 R. L. Martin, K. Morokuma, V. G. Zakrzewski, G. A. Voth, 
 P. Salvador, J. J. Dannenberg, S. Dapprich, A. D. Daniels, 
 O. Farkas, J. B. Foresman, J. V. Ortiz, J. Cioslowski, 
 and D. J. Fox, Gaussian, Inc., Wallingford CT, 2013.
 
 ******************************************
 Gaussian 09:  AS64L-G09RevD.01 24-Apr-2013
                16-Feb-2019 
 ******************************************
 %chk=check.chk
 %mem=1500mb
 %nproc=8
 Will use up to    8 processors via shared memory.
 --------------------------------------------
 #P opt=(noeigentest, calcfc) cbs-qb3 scf=xqc
 --------------------------------------------
 1/10=4,11=1,14=-1,18=20,19=15,26=3,38=1/1,3;
 2/9=110,12=2,17=6,18=5,40=1/2;
 3/5=4,6=6,7=700,11=2,16=1,25=1,30=1,71=2,74=-5,140=1/1,2,3;
 4//1;
 5/5=2,8=3,13=1,38=5/2,8;
 8/6=4,10=90,11=11/1;
 11/6=1,8=1,9=11,15=111,16=1/1,2,10;
 10/6=1,13=1/2;
 6/7=2,8=2,9=2,10=2,28=1/1;
 7/10=1,18=20,25=1/1,2,3,16;
 1/10=4,11=1,14=-1,18=20,19=15,26=3/3(2);
 2/9=110/2;
 99//99;
 2/9=110/2;
 3/5=4,6=6,7=700,11=2,16=1,25=1,30=1,71=1,74=-5/1,2,3;
 4/5=5,16=3,69=1/1;
 5/5=2,8=3,13=1,38=5/2,8;
 7//1,2,3,16;
 1/11=1,14=-1,18=20,19=15,26=3/3(-5);
 2/9=110/2;
 6/7=2,8=2,9=2,10=2,19=2,28=1/1;
 99/9=1/99;
 Leave Link    1 at Sat Feb 16 13:50:07 2019, MaxMem=   196608000 cpu:         0.6
 (Enter /cm/shared/c3ddb/gaussian/09.d01/g09/l101.exe)
 ----
 name
 ----
 Symbolic Z-matrix:
 Charge =  0 Multiplicity = 1
 C                    -1.11035   0.12087  -0.26014 
 C                     0.16007  -0.2558    0.46778 
 C                     1.40455   0.01275   0.03007 
 H                    -0.88851   0.6473   -1.20197 
 H                    -1.74635   0.77706   0.36132 
 H                    -1.71388  -0.77384  -0.4979 
 H                     0.0296   -0.78537   1.41873 
 H                     2.29066  -0.28199   0.59557 
 H                     1.57421   0.53903  -0.91347 
 
 NAtoms=      9 NQM=        9 NQMF=       0 NMMI=      0 NMMIF=      0
                NMic=       0 NMicF=      0.
                    Isotopes and Nuclear Properties:
 (Nuclear quadrupole moments (NQMom) in fm**2, nuclear magnetic moments (NMagM)
  in nuclear magnetons)

  Atom         1           2           3           4           5           6           7           8           9
 IAtWgt=          12          12          12           1           1           1           1           1           1
 AtmWgt=  12.0000000  12.0000000  12.0000000   1.0078250   1.0078250   1.0078250   1.0078250   1.0078250   1.0078250
 NucSpn=           0           0           0           1           1           1           1           1           1
 AtZEff=   0.0000000   0.0000000   0.0000000   0.0000000   0.0000000   0.0000000   0.0000000   0.0000000   0.0000000
 NQMom=    0.0000000   0.0000000   0.0000000   0.0000000   0.0000000   0.0000000   0.0000000   0.0000000   0.0000000
 NMagM=    0.0000000   0.0000000   0.0000000   2.7928460   2.7928460   2.7928460   2.7928460   2.7928460   2.7928460
 AtZNuc=   6.0000000   6.0000000   6.0000000   1.0000000   1.0000000   1.0000000   1.0000000   1.0000000   1.0000000
 Leave Link  101 at Sat Feb 16 13:50:07 2019, MaxMem=   196608000 cpu:         0.7
 (Enter /cm/shared/c3ddb/gaussian/09.d01/g09/l103.exe)

 GradGradGradGradGradGradGradGradGradGradGradGradGradGradGradGradGradGrad
 Berny optimization.
 Initialization pass.
                           ----------------------------
                           !    Initial Parameters    !
                           ! (Angstroms and Degrees)  !
 --------------------------                            --------------------------
 ! Name  Definition              Value          Derivative Info.                !
 --------------------------------------------------------------------------------
 ! R1    R(1,2)                  1.5119         calculate D2E/DX2 analytically  !
 ! R2    R(1,4)                  1.1015         calculate D2E/DX2 analytically  !
 ! R3    R(1,5)                  1.1051         calculate D2E/DX2 analytically  !
 ! R4    R(1,6)                  1.1051         calculate D2E/DX2 analytically  !
 ! R5    R(2,3)                  1.3463         calculate D2E/DX2 analytically  !
 ! R6    R(2,7)                  1.0963         calculate D2E/DX2 analytically  !
 ! R7    R(3,8)                  1.0917         calculate D2E/DX2 analytically  !
 ! R8    R(3,9)                  1.0936         calculate D2E/DX2 analytically  !
 ! A1    A(2,1,4)              111.1923         calculate D2E/DX2 analytically  !
 ! A2    A(2,1,5)              111.1483         calculate D2E/DX2 analytically  !
 ! A3    A(2,1,6)              111.1484         calculate D2E/DX2 analytically  !
 ! A4    A(4,1,5)              108.2368         calculate D2E/DX2 analytically  !
 ! A5    A(4,1,6)              108.2369         calculate D2E/DX2 analytically  !
 ! A6    A(5,1,6)              106.7033         calculate D2E/DX2 analytically  !
 ! A7    A(1,2,3)              124.7873         calculate D2E/DX2 analytically  !
 ! A8    A(1,2,7)              115.9762         calculate D2E/DX2 analytically  !
 ! A9    A(3,2,7)              119.2365         calculate D2E/DX2 analytically  !
 ! A10   A(2,3,8)              121.8721         calculate D2E/DX2 analytically  !
 ! A11   A(2,3,9)              121.3261         calculate D2E/DX2 analytically  !
 ! A12   A(8,3,9)              116.8017         calculate D2E/DX2 analytically  !
 ! D1    D(4,1,2,3)              0.0            calculate D2E/DX2 analytically  !
 ! D2    D(4,1,2,7)            180.0            calculate D2E/DX2 analytically  !
 ! D3    D(5,1,2,3)           -120.655          calculate D2E/DX2 analytically  !
 ! D4    D(5,1,2,7)             59.345          calculate D2E/DX2 analytically  !
 ! D5    D(6,1,2,3)            120.655          calculate D2E/DX2 analytically  !
 ! D6    D(6,1,2,7)            -59.345          calculate D2E/DX2 analytically  !
 ! D7    D(1,2,3,8)           -180.0            calculate D2E/DX2 analytically  !
 ! D8    D(1,2,3,9)              0.0            calculate D2E/DX2 analytically  !
 ! D9    D(7,2,3,8)              0.0            calculate D2E/DX2 analytically  !
 ! D10   D(7,2,3,9)           -180.0            calculate D2E/DX2 analytically  !
 --------------------------------------------------------------------------------
 Trust Radius=3.00D-01 FncErr=1.00D-07 GrdErr=1.00D-06
 Number of steps in this run=     40 maximum allowed number of steps=    100.
 GradGradGradGradGradGradGradGradGradGradGradGradGradGradGradGradGradGrad

 Leave Link  103 at Sat Feb 16 13:50:07 2019, MaxMem=   196608000 cpu:         0.0
 (Enter /cm/shared/c3ddb/gaussian/09.d01/g09/l202.exe)
                          Input orientation:                          
 ---------------------------------------------------------------------
 Center     Atomic      Atomic             Coordinates (Angstroms)
 Number     Number       Type             X           Y           Z
 ---------------------------------------------------------------------
      1          6           0       -1.110354    0.120868   -0.260136
      2          6           0        0.160073   -0.255803    0.467783
      3          6           0        1.404552    0.012749    0.030071
      4          1           0       -0.888511    0.647295   -1.201970
      5          1           0       -1.746352    0.777060    0.361315
      6          1           0       -1.713880   -0.773843   -0.497895
      7          1           0        0.029601   -0.785367    1.418734
      8          1           0        2.290657   -0.281988    0.595570
      9          1           0        1.574213    0.539030   -0.913472
 ---------------------------------------------------------------------
                    Distance matrix (angstroms):
                    1          2          3          4          5
     1  C    0.000000
     2  C    1.511864   0.000000
     3  C    2.533903   1.346269   0.000000
     4  H    1.101540   2.168684   2.679312   0.000000
     5  H    1.105117   2.170852   3.259155   1.787901   0.000000
     6  H    1.105116   2.170852   3.259155   1.787901   1.773301
     7  H    2.222468   1.096252   2.110892   3.124666   2.591008
     8  H    3.530071   2.134573   1.091715   3.768531   4.180179
     9  H    2.794389   2.130591   1.093632   2.481927   3.564813
                    6          7          8          9
     6  H    0.000000
     7  H    2.591009   0.000000
     8  H    4.180180   2.458325   0.000000
     9  H    3.564814   3.095002   1.861336   0.000000
 Stoichiometry    C3H6
 Framework group  CS[SG(C3H4),X(H2)]
 Deg. of freedom    14
 Full point group                 CS      NOp   2
 Largest Abelian subgroup         CS      NOp   2
 Largest concise Abelian subgroup CS      NOp   2
                         Standard orientation:                         
 ---------------------------------------------------------------------
 Center     Atomic      Atomic             Coordinates (Angstroms)
 Number     Number       Type             X           Y           Z
 ---------------------------------------------------------------------
      1          6           0       -0.374327   -1.195487    0.000000
      2          6           0        0.479091    0.052475    0.000000
      3          6           0        0.000000    1.310614    0.000000
      4          1           0       -1.446877   -0.944438    0.000000
      5          1           0       -0.165606   -1.821241    0.886651
      6          1           0       -0.165606   -1.821241   -0.886651
      7          1           0        1.563611   -0.107479    0.000000
      8          1           0        0.661284    2.179259    0.000000
      9          1           0       -1.075389    1.509530    0.000000
 ---------------------------------------------------------------------
 Rotational constants (GHZ):     45.8950997      9.1436889      8.0075002
 Leave Link  202 at Sat Feb 16 13:50:07 2019, MaxMem=   196608000 cpu:         0.3
 (Enter /cm/shared/c3ddb/gaussian/09.d01/g09/l301.exe)
 Standard basis: 6-311G(2d,d,p) (5D, 7F)
 Ernie: Thresh=  0.10000D-02 Tol=  0.10000D-05 Strict=F.
 There are    68 symmetry adapted cartesian basis functions of A'  symmetry.
 There are    25 symmetry adapted cartesian basis functions of A"  symmetry.
 There are    65 symmetry adapted basis functions of A'  symmetry.
 There are    25 symmetry adapted basis functions of A"  symmetry.
    90 basis functions,   144 primitive gaussians,    93 cartesian basis functions
    12 alpha electrons       12 beta electrons
       nuclear repulsion energy        70.1168165045 Hartrees.
 IExCor=  402 DFT=T Ex+Corr=B3LYP ExCW=0 ScaHFX=  0.200000
 ScaDFX=  0.800000  0.720000  1.000000  0.810000 ScalE2=  1.000000  1.000000
 IRadAn=      0 IRanWt=     -1 IRanGd=            0 ICorTp=0 IEmpDi=  4
 NAtoms=    9 NActive=    9 NUniq=    8 SFac= 1.27D+00 NAtFMM=   60 NAOKFM=F Big=F
 Integral buffers will be    131072 words long.
 Raffenetti 2 integral format.
 Two-electron integral symmetry is turned on.
 Leave Link  301 at Sat Feb 16 13:50:07 2019, MaxMem=   196608000 cpu:         0.6
 (Enter /cm/shared/c3ddb/gaussian/09.d01/g09/l302.exe)
 NPDir=0 NMtPBC=     1 NCelOv=     1 NCel=       1 NClECP=     1 NCelD=      1
         NCelK=      1 NCelE2=     1 NClLst=     1 CellRange=     0.0.
 One-electron integrals computed using PRISM.
 One-electron integral symmetry used in STVInt
 NBasis=    90 RedAO= T EigKep=  3.61D-03  NBF=    65    25
 NBsUse=    90 1.00D-06 EigRej= -1.00D+00 NBFU=    65    25
 Precomputing XC quadrature grid using
 IXCGrd= 4 IRadAn=           0 IRanWt=          -1 IRanGd=           0 AccXCQ= 0.00D+00.
 Generated NRdTot=       0 NPtTot=           0 NUsed=           0 NTot=          32
 NSgBfM=    93    93    93    93    93 MxSgAt=     9 MxSgA2=     9.
 Leave Link  302 at Sat Feb 16 13:50:09 2019, MaxMem=   196608000 cpu:        10.0
 (Enter /cm/shared/c3ddb/gaussian/09.d01/g09/l303.exe)
 DipDrv:  MaxL=1.
 Leave Link  303 at Sat Feb 16 13:50:09 2019, MaxMem=   196608000 cpu:         0.8
 (Enter /cm/shared/c3ddb/gaussian/09.d01/g09/l401.exe)
 ExpMin= 1.03D-01 ExpMax= 4.56D+03 ExpMxC= 6.82D+02 IAcc=1 IRadAn=         1 AccDes= 0.00D+00
 Harris functional with IExCor=  402 and IRadAn=       1 diagonalized for initial guess.
 HarFok:  IExCor=  402 AccDes= 0.00D+00 IRadAn=         1 IDoV= 1 UseB2=F ITyADJ=14
 ICtDFT=  3500011 ScaDFX=  1.000000  1.000000  1.000000  1.000000
 FoFCou: FMM=F IPFlag=           0 FMFlag=      100000 FMFlg1=           0
         NFxFlg=           0 DoJE=T BraDBF=F KetDBF=T FulRan=T
         wScrn=  0.000000 ICntrl=     500 IOpCl=  0 I1Cent=   200000004 NGrid=           0
         NMat0=    1 NMatS0=      1 NMatT0=    0 NMatD0=    1 NMtDS0=    0 NMtDT0=    0
 Petite list used in FoFCou.
 Harris En= -117.993294616246    
 JPrj=0 DoOrth=F DoCkMO=F.
 Initial guess orbital symmetries:
       Occupied  (A') (A') (A') (A') (A') (A') (A') (A') (A") (A')
                 (A') (A")
       Virtual   (A") (A') (A') (A') (A") (A') (A') (A') (A') (A')
                 (A") (A') (A') (A') (A") (A') (A") (A') (A') (A')
                 (A") (A') (A') (A') (A') (A') (A') (A") (A") (A")
                 (A') (A') (A") (A') (A") (A') (A") (A') (A') (A')
                 (A") (A') (A') (A") (A") (A') (A") (A') (A') (A')
                 (A") (A') (A') (A') (A") (A') (A') (A") (A") (A')
                 (A') (A') (A") (A') (A') (A") (A') (A') (A') (A')
                 (A') (A") (A') (A') (A') (A') (A') (A')
 The electronic state of the initial guess is 1-A'.
 Leave Link  401 at Sat Feb 16 13:50:11 2019, MaxMem=   196608000 cpu:         8.6
 (Enter /cm/shared/c3ddb/gaussian/09.d01/g09/l502.exe)
 Closed shell SCF:
 Using DIIS extrapolation, IDIIS=  1040.
 Integral symmetry usage will be decided dynamically.
 Keep R1 ints in memory in symmetry-blocked form, NReq=12802219.
 IVT=       33471 IEndB=       33471 NGot=   196608000 MDV=   192192432
 LenX=   192192432 LenY=   192183342
 Requested convergence on RMS density matrix=1.00D-08 within  64 cycles.
 Requested convergence on MAX density matrix=1.00D-06.
 Requested convergence on             energy=1.00D-06.
 No special actions if energy rises.
 FoFCou: FMM=F IPFlag=           0 FMFlag=           0 FMFlg1=           0
         NFxFlg=           0 DoJE=F BraDBF=F KetDBF=F FulRan=T
         wScrn=  0.000000 ICntrl=     600 IOpCl=  0 I1Cent=           0 NGrid=           0
         NMat0=    1 NMatS0=   4095 NMatT0=    0 NMatD0=    1 NMtDS0=    0 NMtDT0=    0
 Petite list used in FoFCou.
 Integral accuracy reduced to 1.0D-05 until final iterations.

 Cycle   1  Pass 0  IDiag  1:
 E= -117.805036215145    
 DIIS: error= 5.01D-02 at cycle   1 NSaved=   1.
 NSaved= 1 IEnMin= 1 EnMin= -117.805036215145     IErMin= 1 ErrMin= 5.01D-02
 ErrMax= 5.01D-02  0.00D+00 EMaxC= 1.00D-01 BMatC= 1.35D-01 BMatP= 1.35D-01
 IDIUse=3 WtCom= 4.99D-01 WtEn= 5.01D-01
 Coeff-Com:  0.100D+01
 Coeff-En:   0.100D+01
 Coeff:      0.100D+01
 Gap=     0.221 Goal=   None    Shift=    0.000
 GapD=    0.221 DampG=1.000 DampE=0.500 DampFc=0.5000 IDamp=-1.
 Damping current iteration by 5.00D-01
 RMSDP=5.99D-03 MaxDP=1.21D-01              OVMax= 1.77D-01

 Cycle   2  Pass 0  IDiag  1:
 E= -117.867977374691     Delta-E=       -0.062941159546 Rises=F Damp=T
 DIIS: error= 5.63D-03 at cycle   2 NSaved=   2.
 NSaved= 2 IEnMin= 2 EnMin= -117.867977374691     IErMin= 2 ErrMin= 5.63D-03
 ErrMax= 5.63D-03  0.00D+00 EMaxC= 1.00D-01 BMatC= 4.34D-03 BMatP= 1.35D-01
 IDIUse=3 WtCom= 9.44D-01 WtEn= 5.63D-02
 Coeff-Com:  0.401D-01 0.960D+00
 Coeff-En:   0.101D+00 0.899D+00
 Coeff:      0.435D-01 0.956D+00
 Gap=     0.274 Goal=   None    Shift=    0.000
 RMSDP=9.63D-04 MaxDP=1.08D-02 DE=-6.29D-02 OVMax= 1.03D-01

 Cycle   3  Pass 0  IDiag  1:
 E= -117.942834952435     Delta-E=       -0.074857577744 Rises=F Damp=F
 DIIS: error= 2.30D-03 at cycle   3 NSaved=   3.
 NSaved= 3 IEnMin= 3 EnMin= -117.942834952435     IErMin= 3 ErrMin= 2.30D-03
 ErrMax= 2.30D-03  0.00D+00 EMaxC= 1.00D-01 BMatC= 4.95D-04 BMatP= 4.34D-03
 IDIUse=3 WtCom= 9.77D-01 WtEn= 2.30D-02
 Coeff-Com: -0.247D-01 0.180D+00 0.845D+00
 Coeff-En:   0.000D+00 0.000D+00 0.100D+01
 Coeff:     -0.242D-01 0.175D+00 0.849D+00
 Gap=     0.268 Goal=   None    Shift=    0.000
 RMSDP=2.65D-04 MaxDP=3.46D-03 DE=-7.49D-02 OVMax= 9.55D-03

 Cycle   4  Pass 0  IDiag  1:
 E= -117.943175654643     Delta-E=       -0.000340702208 Rises=F Damp=F
 DIIS: error= 2.01D-03 at cycle   4 NSaved=   4.
 NSaved= 4 IEnMin= 4 EnMin= -117.943175654643     IErMin= 4 ErrMin= 2.01D-03
 ErrMax= 2.01D-03  0.00D+00 EMaxC= 1.00D-01 BMatC= 1.71D-04 BMatP= 4.95D-04
 IDIUse=3 WtCom= 9.80D-01 WtEn= 2.01D-02
 Coeff-Com: -0.140D-01 0.600D-01 0.437D+00 0.517D+00
 Coeff-En:   0.000D+00 0.000D+00 0.187D+00 0.813D+00
 Coeff:     -0.137D-01 0.588D-01 0.432D+00 0.523D+00
 Gap=     0.268 Goal=   None    Shift=    0.000
 RMSDP=1.25D-04 MaxDP=2.33D-03 DE=-3.41D-04 OVMax= 1.01D-02

 Cycle   5  Pass 0  IDiag  1:
 E= -117.943308056049     Delta-E=       -0.000132401406 Rises=F Damp=F
 DIIS: error= 1.04D-03 at cycle   5 NSaved=   5.
 NSaved= 5 IEnMin= 5 EnMin= -117.943308056049     IErMin= 5 ErrMin= 1.04D-03
 ErrMax= 1.04D-03  0.00D+00 EMaxC= 1.00D-01 BMatC= 3.86D-05 BMatP= 1.71D-04
 IDIUse=3 WtCom= 9.90D-01 WtEn= 1.04D-02
 Coeff-Com: -0.481D-02 0.939D-02 0.149D+00 0.342D+00 0.505D+00
 Coeff-En:   0.000D+00 0.000D+00 0.000D+00 0.213D+00 0.787D+00
 Coeff:     -0.476D-02 0.929D-02 0.147D+00 0.341D+00 0.508D+00
 Gap=     0.268 Goal=   None    Shift=    0.000
 RMSDP=4.77D-05 MaxDP=9.10D-04 DE=-1.32D-04 OVMax= 3.74D-03

 Cycle   6  Pass 0  IDiag  1:
 E= -117.943348096993     Delta-E=       -0.000040040943 Rises=F Damp=F
 DIIS: error= 6.04D-05 at cycle   6 NSaved=   6.
 NSaved= 6 IEnMin= 6 EnMin= -117.943348096993     IErMin= 6 ErrMin= 6.04D-05
 ErrMax= 6.04D-05  0.00D+00 EMaxC= 1.00D-01 BMatC= 1.74D-07 BMatP= 3.86D-05
 IDIUse=1 WtCom= 1.00D+00 WtEn= 0.00D+00
 Coeff-Com: -0.671D-03 0.378D-03 0.261D-01 0.750D-01 0.143D+00 0.756D+00
 Coeff:     -0.671D-03 0.378D-03 0.261D-01 0.750D-01 0.143D+00 0.756D+00
 Gap=     0.268 Goal=   None    Shift=    0.000
 RMSDP=5.52D-06 MaxDP=7.84D-05 DE=-4.00D-05 OVMax= 2.03D-04

 Initial convergence to 1.0D-05 achieved.  Increase integral accuracy.
 Cycle   7  Pass 1  IDiag  1:
 E= -117.943386683092     Delta-E=       -0.000038586099 Rises=F Damp=F
 DIIS: error= 1.93D-05 at cycle   1 NSaved=   1.
 NSaved= 1 IEnMin= 1 EnMin= -117.943386683092     IErMin= 1 ErrMin= 1.93D-05
 ErrMax= 1.93D-05  0.00D+00 EMaxC= 1.00D-01 BMatC= 2.66D-08 BMatP= 2.66D-08
 IDIUse=1 WtCom= 1.00D+00 WtEn= 0.00D+00
 Coeff-Com:  0.100D+01
 Coeff:      0.100D+01
 Gap=     0.268 Goal=   None    Shift=    0.000
 RMSDP=5.52D-06 MaxDP=7.84D-05 DE=-3.86D-05 OVMax= 1.07D-04

 Cycle   8  Pass 1  IDiag  1:
 E= -117.943386689795     Delta-E=       -0.000000006702 Rises=F Damp=F
 DIIS: error= 1.90D-05 at cycle   2 NSaved=   2.
 NSaved= 2 IEnMin= 2 EnMin= -117.943386689795     IErMin= 2 ErrMin= 1.90D-05
 ErrMax= 1.90D-05  0.00D+00 EMaxC= 1.00D-01 BMatC= 2.68D-08 BMatP= 2.66D-08
 IDIUse=1 WtCom= 1.00D+00 WtEn= 0.00D+00
 Coeff-Com:  0.501D+00 0.499D+00
 Coeff:      0.501D+00 0.499D+00
 Gap=     0.268 Goal=   None    Shift=    0.000
 RMSDP=1.33D-06 MaxDP=3.12D-05 DE=-6.70D-09 OVMax= 5.07D-05

 Cycle   9  Pass 1  IDiag  1:
 E= -117.943386715099     Delta-E=       -0.000000025304 Rises=F Damp=F
 DIIS: error= 5.17D-06 at cycle   3 NSaved=   3.
 NSaved= 3 IEnMin= 3 EnMin= -117.943386715099     IErMin= 3 ErrMin= 5.17D-06
 ErrMax= 5.17D-06  0.00D+00 EMaxC= 1.00D-01 BMatC= 9.40D-10 BMatP= 2.66D-08
 IDIUse=1 WtCom= 1.00D+00 WtEn= 0.00D+00
 Coeff-Com:  0.563D-01 0.163D+00 0.781D+00
 Coeff:      0.563D-01 0.163D+00 0.781D+00
 Gap=     0.268 Goal=   None    Shift=    0.000
 RMSDP=3.34D-07 MaxDP=7.31D-06 DE=-2.53D-08 OVMax= 2.69D-05

 Cycle  10  Pass 1  IDiag  1:
 E= -117.943386715395     Delta-E=       -0.000000000296 Rises=F Damp=F
 DIIS: error= 3.72D-06 at cycle   4 NSaved=   4.
 NSaved= 4 IEnMin= 4 EnMin= -117.943386715395     IErMin= 4 ErrMin= 3.72D-06
 ErrMax= 3.72D-06  0.00D+00 EMaxC= 1.00D-01 BMatC= 6.02D-10 BMatP= 9.40D-10
 IDIUse=1 WtCom= 1.00D+00 WtEn= 0.00D+00
 Coeff-Com: -0.107D-01 0.603D-01 0.517D+00 0.433D+00
 Coeff:     -0.107D-01 0.603D-01 0.517D+00 0.433D+00
 Gap=     0.268 Goal=   None    Shift=    0.000
 RMSDP=1.86D-07 MaxDP=3.72D-06 DE=-2.96D-10 OVMax= 1.49D-05

 Cycle  11  Pass 1  IDiag  1:
 E= -117.943386716010     Delta-E=       -0.000000000615 Rises=F Damp=F
 DIIS: error= 4.30D-07 at cycle   5 NSaved=   5.
 NSaved= 5 IEnMin= 5 EnMin= -117.943386716010     IErMin= 5 ErrMin= 4.30D-07
 ErrMax= 4.30D-07  0.00D+00 EMaxC= 1.00D-01 BMatC= 8.84D-12 BMatP= 6.02D-10
 IDIUse=1 WtCom= 1.00D+00 WtEn= 0.00D+00
 Coeff-Com: -0.741D-02 0.134D-01 0.146D+00 0.177D+00 0.671D+00
 Coeff:     -0.741D-02 0.134D-01 0.146D+00 0.177D+00 0.671D+00
 Gap=     0.268 Goal=   None    Shift=    0.000
 RMSDP=3.15D-08 MaxDP=4.82D-07 DE=-6.15D-10 OVMax= 1.35D-06

 Cycle  12  Pass 1  IDiag  1:
 E= -117.943386716020     Delta-E=       -0.000000000010 Rises=F Damp=F
 DIIS: error= 4.01D-08 at cycle   6 NSaved=   6.
 NSaved= 6 IEnMin= 6 EnMin= -117.943386716020     IErMin= 6 ErrMin= 4.01D-08
 ErrMax= 4.01D-08  0.00D+00 EMaxC= 1.00D-01 BMatC= 1.47D-13 BMatP= 8.84D-12
 IDIUse=1 WtCom= 1.00D+00 WtEn= 0.00D+00
 Coeff-Com: -0.146D-02 0.100D-02 0.173D-01 0.290D-01 0.170D+00 0.784D+00
 Coeff:     -0.146D-02 0.100D-02 0.173D-01 0.290D-01 0.170D+00 0.784D+00
 Gap=     0.268 Goal=   None    Shift=    0.000
 RMSDP=4.58D-09 MaxDP=8.03D-08 DE=-9.89D-12 OVMax= 1.39D-07

 SCF Done:  E(RB3LYP) =  -117.943386716     A.U. after   12 cycles
            NFock= 12  Conv=0.46D-08     -V/T= 2.0062
 KE= 1.172171487135D+02 PE=-4.129521418434D+02 EE= 1.076747899095D+02
 Leave Link  502 at Sat Feb 16 13:50:27 2019, MaxMem=   196608000 cpu:       102.0
 (Enter /cm/shared/c3ddb/gaussian/09.d01/g09/l508.exe)
 QCSCF skips out because SCF is already converged.
 Leave Link  508 at Sat Feb 16 13:50:27 2019, MaxMem=   196608000 cpu:         0.0
 (Enter /cm/shared/c3ddb/gaussian/09.d01/g09/l801.exe)
 DoSCS=F DFT=T ScalE2(SS,OS)=  1.000000  1.000000
 Range of M.O.s used for correlation:     1    90
 NBasis=    90 NAE=    12 NBE=    12 NFC=     0 NFV=     0
 NROrb=     90 NOA=    12 NOB=    12 NVA=    78 NVB=    78
 Leave Link  801 at Sat Feb 16 13:50:27 2019, MaxMem=   196608000 cpu:         0.1
 (Enter /cm/shared/c3ddb/gaussian/09.d01/g09/l1101.exe)
 Using compressed storage, NAtomX=     9.
 Will process     10 centers per pass.
 Leave Link 1101 at Sat Feb 16 13:50:29 2019, MaxMem=   196608000 cpu:        10.3
 (Enter /cm/shared/c3ddb/gaussian/09.d01/g09/l1102.exe)
 Symmetrizing basis deriv contribution to polar:
 IMax=3 JMax=2 DiffMx= 0.00D+00
 Leave Link 1102 at Sat Feb 16 13:50:29 2019, MaxMem=   196608000 cpu:         0.6
 (Enter /cm/shared/c3ddb/gaussian/09.d01/g09/l1110.exe)
 Forming Gx(P) for the SCF density, NAtomX=     9.
 Integral derivatives from FoFJK, PRISM(SPDF).
 Do as many integral derivatives as possible in FoFJK.
 G2DrvN: MDV=     196607824.
 G2DrvN: will do    10 centers at a time, making    1 passes.
 Calling FoFCou, ICntrl=  3107 FMM=F I1Cent=   0 AccDes= 0.00D+00.
 FoFJK:  IHMeth= 1 ICntrl=    3107 DoSepK=F KAlg= 0 I1Cent=   0 FoldK=F
 IRaf=         0 NMat=   1 IRICut=       1 DoRegI=T DoRafI=F ISym2E= 1.
 FoFCou: FMM=F IPFlag=           0 FMFlag=      100000 FMFlg1=           0
         NFxFlg=           0 DoJE=F BraDBF=F KetDBF=F FulRan=T
         wScrn=  0.000000 ICntrl=    3107 IOpCl=  0 I1Cent=           0 NGrid=           0
         NMat0=    1 NMatS0=      1 NMatT0=    0 NMatD0=    1 NMtDS0=    0 NMtDT0=    0
 Petite list used in FoFCou.
 End of G2Drv F.D. properties file   721 does not exist.
 End of G2Drv F.D. properties file   722 does not exist.
 End of G2Drv F.D. properties file   788 does not exist.
 Leave Link 1110 at Sat Feb 16 13:50:35 2019, MaxMem=   196608000 cpu:        34.1
 (Enter /cm/shared/c3ddb/gaussian/09.d01/g09/l1002.exe)
 Minotr:  Closed shell wavefunction.
          IDoAtm=111111111
          Direct CPHF calculation.
          Differentiating once with respect to nuclear coordinates.
          Using symmetry in CPHF.
          Requested convergence is 1.0D-08 RMS, and 1.0D-07 maximum.
          Secondary convergence is 1.0D-12 RMS, and 1.0D-12 maximum.
          NewPWx=T KeepS1=F KeepF1=F KeepIn=T MapXYZ=F SortEE=F KeepMc=T.
          MDV=     196607816 using IRadAn=       2.
 Generate precomputed XC quadrature information.
 Keep R1 ints in memory in symmetry-blocked form, NReq=12771875.
 FoFCou: FMM=F IPFlag=           0 FMFlag=           0 FMFlg1=           0
         NFxFlg=           0 DoJE=F BraDBF=F KetDBF=F FulRan=T
         wScrn=  0.000000 ICntrl=     600 IOpCl=  0 I1Cent=           0 NGrid=           0
         NMat0=    1 NMatS0=   4095 NMatT0=    0 NMatD0=    1 NMtDS0=    0 NMtDT0=    0
 Petite list used in FoFCou.
          Solving linear equations simultaneously, MaxMat=       0.
          There are    27 degrees of freedom in the 1st order CPHF.  IDoFFX=4 NUNeed=    27.
     24 vectors produced by pass  0 Test12= 3.47D-15 3.70D-09 XBig12= 6.64D-02 1.02D-01.
 AX will form    24 AO Fock derivatives at one time.
     24 vectors produced by pass  1 Test12= 3.47D-15 3.70D-09 XBig12= 9.05D-03 2.19D-02.
     24 vectors produced by pass  2 Test12= 3.47D-15 3.70D-09 XBig12= 6.94D-05 1.54D-03.
     24 vectors produced by pass  3 Test12= 3.47D-15 3.70D-09 XBig12= 1.31D-07 8.77D-05.
     24 vectors produced by pass  4 Test12= 3.47D-15 3.70D-09 XBig12= 1.22D-10 2.32D-06.
     11 vectors produced by pass  5 Test12= 3.47D-15 3.70D-09 XBig12= 1.01D-13 5.74D-08.
 InvSVY:  IOpt=1 It=  1 EMax= 2.50D-16
 Solved reduced A of dimension   131 with    27 vectors.
 FullF1:  Do perturbations    4 to    27.
 End of Minotr F.D. properties file   721 does not exist.
 End of Minotr F.D. properties file   722 does not exist.
 End of Minotr F.D. properties file   788 does not exist.
 Leave Link 1002 at Sat Feb 16 13:50:50 2019, MaxMem=   196608000 cpu:        88.8
 (Enter /cm/shared/c3ddb/gaussian/09.d01/g09/l601.exe)
 Copying SCF densities to generalized density rwf, IOpCl= 0 IROHF=0.

 **********************************************************************

            Population analysis using the SCF density.

 **********************************************************************

 Orbital symmetries:
       Occupied  (A') (A') (A') (A') (A') (A') (A') (A') (A") (A')
                 (A') (A")
       Virtual   (A") (A') (A') (A') (A") (A') (A') (A') (A') (A")
                 (A') (A') (A') (A') (A") (A') (A") (A') (A') (A")
                 (A') (A') (A') (A') (A') (A') (A') (A") (A") (A")
                 (A') (A') (A") (A') (A") (A') (A") (A') (A') (A')
                 (A") (A') (A') (A") (A") (A') (A") (A') (A') (A")
                 (A') (A') (A') (A") (A') (A') (A") (A') (A') (A")
                 (A') (A') (A') (A") (A') (A') (A") (A') (A') (A')
                 (A') (A") (A') (A') (A') (A') (A') (A')
 The electronic state is 1-A'.
 Alpha  occ. eigenvalues --  -10.17801 -10.17070 -10.16234  -0.78329  -0.68394
 Alpha  occ. eigenvalues --   -0.55458  -0.46603  -0.42128  -0.41266  -0.37375
 Alpha  occ. eigenvalues --   -0.34834  -0.25801
 Alpha virt. eigenvalues --    0.01033   0.05235   0.07643   0.08534   0.11613
 Alpha virt. eigenvalues --    0.12416   0.13861   0.22998   0.29353   0.30971
 Alpha virt. eigenvalues --    0.31921   0.33296   0.37920   0.41936   0.43900
 Alpha virt. eigenvalues --    0.46512   0.51462   0.54264   0.57294   0.58296
 Alpha virt. eigenvalues --    0.59698   0.61523   0.66327   0.68886   0.78492
 Alpha virt. eigenvalues --    0.84440   0.86645   0.96420   1.05668   1.10881
 Alpha virt. eigenvalues --    1.19240   1.36862   1.37651   1.40455   1.44882
 Alpha virt. eigenvalues --    1.47664   1.50315   1.51608   1.56489   1.58122
 Alpha virt. eigenvalues --    1.60589   1.71833   1.72449   1.74290   1.82913
 Alpha virt. eigenvalues --    1.86413   1.99591   2.00005   2.04146   2.10346
 Alpha virt. eigenvalues --    2.10704   2.16712   2.25061   2.31788   2.31972
 Alpha virt. eigenvalues --    2.36356   2.43743   2.45308   2.47150   2.51993
 Alpha virt. eigenvalues --    2.54987   2.60343   2.65878   2.68015   2.76517
 Alpha virt. eigenvalues --    2.83634   2.88100   3.03152   3.12660   3.42908
 Alpha virt. eigenvalues --    3.70119   3.75437   3.80962   3.95202   4.28321
 Alpha virt. eigenvalues --   23.69667  23.88964  24.21083
          Condensed to atoms (all electrons):
               1          2          3          4          5          6
     1  C    4.828434   0.368397  -0.063524   0.405553   0.396551   0.396551
     2  C    0.368397   4.906365   0.652652  -0.038641  -0.034924  -0.034924
     3  C   -0.063524   0.652652   4.848249  -0.005123   0.000708   0.000708
     4  H    0.405553  -0.038641  -0.005123   0.573949  -0.027681  -0.027681
     5  H    0.396551  -0.034924   0.000708  -0.027681   0.585071  -0.032999
     6  H    0.396551  -0.034924   0.000708  -0.027681  -0.032999   0.585071
     7  H   -0.046851   0.407158  -0.037979   0.006823  -0.002478  -0.002478
     8  H    0.007184  -0.033132   0.406583   0.000027  -0.000392  -0.000392
     9  H   -0.011760  -0.039323   0.407293   0.005420   0.000207   0.000207
               7          8          9
     1  C   -0.046851   0.007184  -0.011760
     2  C    0.407158  -0.033132  -0.039323
     3  C   -0.037979   0.406583   0.407293
     4  H    0.006823   0.000027   0.005420
     5  H   -0.002478  -0.000392   0.000207
     6  H   -0.002478  -0.000392   0.000207
     7  H    0.578867  -0.011194   0.008091
     8  H   -0.011194   0.567531  -0.042097
     9  H    0.008091  -0.042097   0.573384
 Mulliken charges:
               1
     1  C   -0.280535
     2  C   -0.153628
     3  C   -0.209565
     4  H    0.107355
     5  H    0.115936
     6  H    0.115936
     7  H    0.100040
     8  H    0.105883
     9  H    0.098579
 Sum of Mulliken charges =   0.00000
 Mulliken charges with hydrogens summed into heavy atoms:
               1
     1  C    0.058692
     2  C   -0.053588
     3  C   -0.005103
 APT charges:
               1
     1  C   -0.972295
     2  C   -0.515299
     3  C   -0.626087
     4  H    0.282692
     5  H    0.371330
     6  H    0.371330
     7  H    0.339784
     8  H    0.445039
     9  H    0.303505
 Sum of APT charges =   0.00000
 APT charges with hydrogens summed into heavy atoms:
               1
     1  C    0.053058
     2  C   -0.175515
     3  C    0.122457
 Electronic spatial extent (au):  <R**2>=            199.9749
 Charge=              0.0000 electrons
 Dipole moment (field-independent basis, Debye):
    X=              0.0138    Y=             -0.3733    Z=              0.0000  Tot=              0.3735
 Quadrupole moment (field-independent basis, Debye-Ang):
   XX=            -19.1299   YY=            -19.2644   ZZ=            -21.9264
   XY=             -0.1848   XZ=              0.0000   YZ=              0.0000
 Traceless Quadrupole moment (field-independent basis, Debye-Ang):
   XX=              0.9770   YY=              0.8425   ZZ=             -1.8195
   XY=             -0.1848   XZ=              0.0000   YZ=              0.0000
 Octapole moment (field-independent basis, Debye-Ang**2):
  XXX=              0.2112  YYY=              1.5691  ZZZ=              0.0000  XYY=              0.8453
  XXY=              0.8776  XXZ=              0.0000  XZZ=             -0.1656  YZZ=             -2.5449
  YYZ=              0.0000  XYZ=              0.0000
 Hexadecapole moment (field-independent basis, Debye-Ang**3):
 XXXX=            -56.9421 YYYY=           -184.3445 ZZZZ=            -31.7350 XXXY=            -12.1933
 XXXZ=              0.0000 YYYX=             -9.6042 YYYZ=              0.0000 ZZZX=              0.0000
 ZZZY=              0.0000 XXYY=            -40.9770 XXZZ=            -16.6614 YYZZ=            -36.9291
 XXYZ=              0.0000 YYXZ=              0.0000 ZZXY=             -4.2933
 N-N= 7.011681650446D+01 E-N=-4.129521466988D+02  KE= 1.172171487135D+02
 Symmetry A'   KE= 1.131384960155D+02
 Symmetry A"   KE= 4.078652698015D+00
  Exact polarizability:   0.000   0.000   0.000   0.000   0.000   0.000
 Approx polarizability:  45.802  -7.772  68.503   0.000   0.000  32.050
 No NMR shielding tensors so no spin-rotation constants.
 Leave Link  601 at Sat Feb 16 13:50:53 2019, MaxMem=   196608000 cpu:        17.3
 (Enter /cm/shared/c3ddb/gaussian/09.d01/g09/l701.exe)
 Compute integral second derivatives.
 ... and contract with generalized density number  0.
 Leave Link  701 at Sat Feb 16 13:50:54 2019, MaxMem=   196608000 cpu:         4.1
 (Enter /cm/shared/c3ddb/gaussian/09.d01/g09/l702.exe)
 L702 exits ... SP integral derivatives will be done elsewhere.
 Leave Link  702 at Sat Feb 16 13:50:54 2019, MaxMem=   196608000 cpu:         0.2
 (Enter /cm/shared/c3ddb/gaussian/09.d01/g09/l703.exe)
 Compute integral second derivatives, UseDBF=F ICtDFT=           0.
 Integral derivatives from FoFJK, PRISM(SPDF).
 Calling FoFJK, ICntrl=    100147 FMM=F ISym2X=1 I1Cent= 0 IOpClX= 0 NMat=1 NMatS=1 NMatT=0.
 FoFJK:  IHMeth= 1 ICntrl=  100147 DoSepK=F KAlg= 0 I1Cent=   0 FoldK=F
 IRaf=         0 NMat=   1 IRICut=       1 DoRegI=T DoRafI=F ISym2E= 1.
 FoFCou: FMM=F IPFlag=           0 FMFlag=      100000 FMFlg1=         800
         NFxFlg=           0 DoJE=F BraDBF=F KetDBF=F FulRan=T
         wScrn=  0.000000 ICntrl=  100147 IOpCl=  0 I1Cent=           0 NGrid=           0
         NMat0=    1 NMatS0=      1 NMatT0=    0 NMatD0=    1 NMtDS0=    0 NMtDT0=    0
 Petite list used in FoFCou.
 Leave Link  703 at Sat Feb 16 13:51:01 2019, MaxMem=   196608000 cpu:        33.3
 (Enter /cm/shared/c3ddb/gaussian/09.d01/g09/l716.exe)
 Dipole        = 5.41188087D-03-1.46850320D-01 1.23876633D-15
 Polarizability= 0.00000000D+00 0.00000000D+00 0.00000000D+00
                 0.00000000D+00 0.00000000D+00 0.00000000D+00
 ***** Axes restored to original set *****
 -------------------------------------------------------------------
 Center     Atomic                   Forces (Hartrees/Bohr)
 Number     Number              X              Y              Z
 -------------------------------------------------------------------
      1        6           0.000450897    0.000017672   -0.000014857
      2        6           0.010760363    0.003155112   -0.005288413
      3        6          -0.012556446   -0.002791864    0.004564857
      4        1          -0.001452013   -0.002740390    0.004891624
      5        1           0.003549522   -0.003598502   -0.003202625
      6        1           0.003375046    0.004734461    0.001413885
      7        1           0.001309347    0.002488041   -0.004441516
      8        1          -0.004517913    0.001194609   -0.002327061
      9        1          -0.000918805   -0.002459138    0.004404105
 -------------------------------------------------------------------
 Cartesian Forces:  Max     0.012556446 RMS     0.004416039
 Force constants in Cartesian coordinates: 
                1             2             3             4             5 
      1  0.482677D+00
      2  0.179192D-01  0.513199D+00
      3 -0.332382D-01 -0.117448D-01  0.526260D+00
      4 -0.163199D+00  0.268664D-01 -0.519454D-01  0.721159D+00
      5  0.236695D-01 -0.843744D-01  0.234162D-01  0.620469D-01  0.265693D+00
      6 -0.461750D-01  0.235371D-01 -0.116128D+00 -0.906004D-01 -0.197412D+00
      7 -0.314229D-01 -0.414292D-02  0.603426D-02 -0.443387D+00 -0.740706D-01
      8  0.743742D-02  0.776357D-02 -0.149326D-02 -0.740265D-01 -0.846556D-01
      9 -0.148687D-01 -0.193092D-02  0.970401D-02  0.118908D+00  0.523237D-01
     10 -0.606483D-01 -0.258793D-01  0.462715D-01  0.618455D-02  0.141306D-01
     11 -0.245033D-01 -0.104247D+00  0.988595D-01 -0.161880D-02 -0.496175D-02
     12  0.437877D-01  0.988075D-01 -0.225661D+00  0.318751D-02  0.797276D-02
     13 -0.119940D+00  0.809262D-01  0.779807D-01 -0.201436D-01  0.147960D-01
     14  0.808120D-01 -0.130293D+00 -0.792621D-01  0.369495D-02 -0.316449D-02
     15  0.757081D-01 -0.780046D-01 -0.126434D+00 -0.896302D-02  0.107701D-01
     16 -0.112139D+00 -0.105607D+00 -0.270856D-01 -0.193966D-01 -0.221022D-01
     17 -0.103643D+00 -0.205042D+00 -0.382528D-01  0.463151D-02  0.103119D-01
     18 -0.281526D-01 -0.395803D-01 -0.594847D-01 -0.779076D-02 -0.129702D-01
     19  0.458002D-02  0.125787D-01 -0.226217D-01 -0.604729D-01 -0.131177D-01
     20 -0.154237D-02 -0.120400D-02  0.640379D-02 -0.149085D-01 -0.104183D+00
     21  0.286732D-02  0.693748D-02 -0.100380D-01  0.262134D-01  0.111694D+00
     22 -0.157998D-02 -0.190787D-02  0.288172D-02 -0.194447D-01  0.917085D-02
     23 -0.106217D-02  0.996651D-02  0.596183D-02 -0.646981D-02  0.427244D-02
     24  0.135519D-02  0.592987D-02  0.263923D-02  0.108460D-01 -0.271446D-02
     25  0.167331D-02 -0.753126D-03  0.172283D-02 -0.129947D-02 -0.145233D-01
     26  0.912603D-03 -0.576897D-02 -0.388847D-02 -0.215990D-03  0.106194D-02
     27 -0.128387D-02 -0.395143D-02 -0.858377D-03  0.144253D-03  0.691933D-02
                6             7             8             9            10 
      6  0.507937D+00
      7  0.118988D+00  0.765796D+00
      8  0.523254D-01  0.368221D-01  0.236385D+00
      9 -0.144069D+00 -0.417553D-01 -0.223145D+00  0.513198D+00
     10 -0.252407D-01  0.174688D-02  0.562341D-03 -0.931743D-03  0.650951D-01
     11  0.737753D-02 -0.773867D-03  0.607694D-04 -0.964258D-03  0.264736D-01
     12 -0.151113D-01  0.148016D-02 -0.913757D-03  0.124807D-02 -0.470987D-01
     13  0.159325D-01 -0.115672D-02  0.181760D-02 -0.327095D-02 -0.416610D-02
     14 -0.357081D-02 -0.865524D-04 -0.381923D-03  0.981133D-03 -0.956056D-02
     15  0.118216D-01 -0.148634D-02  0.164364D-03 -0.806739D-03  0.139234D-01
     16 -0.446877D-02 -0.118412D-02  0.176049D-02 -0.327745D-02 -0.405004D-02
     17  0.196154D-02  0.127259D-02 -0.737431D-04 -0.488824D-04 -0.644052D-02
     18 -0.240194D-02 -0.744325D-03  0.858291D-03 -0.108752D-02  0.145890D-01
     19  0.229809D-01 -0.146592D-02 -0.152602D-01  0.272712D-01 -0.437955D-02
     20  0.111627D+00 -0.110025D-03  0.171792D-02  0.733421D-02  0.130524D-02
     21 -0.242650D+00 -0.753814D-04  0.676163D-02 -0.642440D-02 -0.258939D-02
     22 -0.173860D-01 -0.226525D+00  0.573151D-01 -0.110720D+00  0.327639D-03
     23 -0.330558D-02  0.594774D-01 -0.601056D-01  0.487794D-01 -0.131156D-03
     24  0.788620D-02 -0.114623D+00  0.486976D-01 -0.126560D+00  0.256827D-03
     25  0.259694D-01 -0.624014D-01 -0.164283D-01  0.286441D-01 -0.110229D-03
     26  0.746006D-02 -0.183881D-01 -0.100711D+00  0.116671D+00 -0.460273D-03
     27 -0.728481D-02  0.321816D-01  0.116745D+00 -0.245202D+00  0.819774D-03
               11            12            13            14            15 
     11  0.109057D+00
     12 -0.111170D+00  0.245800D+00
     13  0.337992D-02  0.339880D-02  0.135159D+00
     14  0.100856D-01  0.840173D-02 -0.897695D-01  0.140099D+00
     15 -0.165703D-01 -0.145216D-01 -0.831766D-01  0.890188D-01  0.134400D+00
     16 -0.482839D-02 -0.115432D-02  0.102047D-01  0.147347D-01  0.352850D-02
     17 -0.116372D-01 -0.336208D-02 -0.986614D-02 -0.168461D-01 -0.399558D-02
     18  0.221599D-01  0.708517D-02 -0.985325D-02 -0.158041D-01 -0.463161D-02
     19  0.136731D-02 -0.270143D-02  0.740708D-03  0.103899D-03  0.915098D-03
     20  0.137157D-02  0.814977D-03 -0.355828D-03  0.180958D-03 -0.357412D-03
     21  0.817323D-03  0.222584D-03 -0.609463D-03  0.380752D-03  0.283362D-03
     22 -0.200636D-04  0.563007D-04 -0.789326D-03  0.511004D-04 -0.270039D-03
     23 -0.415566D-04 -0.297813D-03 -0.211760D-02  0.274042D-03 -0.101668D-02
     24 -0.293615D-03  0.335891D-03 -0.101424D-02 -0.100173D-03 -0.270815D-03
     25  0.523517D-03 -0.956002D-03  0.909485D-04  0.199898D-04 -0.179174D-03
     26  0.312214D-03 -0.252871D-03  0.118942D-02  0.458275D-04 -0.874552D-05
     27 -0.215690D-03  0.602069D-03  0.612493D-03 -0.453082D-04  0.159722D-03
               16            17            18            19            20 
     16  0.126568D+00
     17  0.114509D+00  0.223504D+00
     18  0.318924D-01  0.446007D-01  0.595850D-01
     19  0.737359D-03 -0.808262D-03  0.395807D-03  0.637886D-01
     20  0.714603D-03  0.261546D-03  0.353455D-03  0.160799D-01  0.982823D-01
     21  0.136522D-05 -0.424889D-03  0.206123D-03 -0.276563D-01 -0.127011D+00
     22 -0.877629D-03  0.201603D-03 -0.227708D-03  0.952466D-03 -0.128271D-04
     23  0.196650D-02 -0.549962D-03  0.487318D-03  0.280214D-03 -0.540986D-02
     24  0.124539D-02 -0.413926D-03  0.641492D-03 -0.187946D-03 -0.369678D-02
     25  0.137290D-03  0.143131D-03 -0.108639D-03 -0.448078D-02 -0.117014D-02
     26 -0.114752D-02  0.711252D-04 -0.105247D-03 -0.122385D-02  0.898230D-02
     27 -0.681502D-03 -0.641029D-04  0.880832D-04  0.160445D-02  0.453216D-02
               21            22            23            24            25 
     21  0.255795D+00
     22  0.341003D-03  0.242300D+00
     23 -0.368570D-02 -0.626900D-01  0.529330D-01
     24 -0.791914D-03  0.121373D+00 -0.529070D-01  0.125021D+00
     25  0.150750D-02  0.563712D-02  0.107466D-01 -0.192511D-01  0.607532D-01
     26  0.453013D-02 -0.210793D-02 -0.133899D-02  0.549843D-02  0.214416D-01
     27  0.339758D-02  0.395176D-02  0.598425D-02 -0.890112D-02 -0.373490D-01
               26            27 
     26  0.973451D-01
     27 -0.129904D+00  0.257999D+00
 FormGI is forming the generalized inverse of G from B-inverse, IUseBI=4.
 Force constants in internal coordinates: 
                1             2             3             4             5 
      1  0.284617D+00
      2  0.493950D-02  0.319416D+00
      3  0.788108D-02  0.277929D-02  0.311319D+00
      4  0.788108D-02  0.277929D-02  0.400834D-02  0.311319D+00
      5  0.159382D-01  0.888262D-03 -0.908216D-03 -0.908216D-03  0.568645D+00
      6  0.585525D-02 -0.633618D-03  0.566558D-03  0.566558D-03  0.721125D-02
      7 -0.561618D-03 -0.243323D-03  0.241862D-03  0.241862D-03  0.564806D-02
      8  0.403553D-03  0.685413D-03 -0.877910D-04 -0.877910D-04  0.693843D-02
      9  0.160279D-01  0.206361D-02 -0.585532D-02 -0.585532D-02 -0.337835D-02
     10  0.141858D-01 -0.596965D-02  0.253789D-02 -0.656318D-02  0.234557D-02
     11  0.141858D-01 -0.596965D-02 -0.656318D-02  0.253789D-02  0.234557D-02
     12 -0.147809D-01  0.559977D-02  0.538631D-02 -0.102409D-02 -0.227620D-04
     13 -0.147809D-01  0.559977D-02 -0.102409D-02  0.538631D-02 -0.227620D-04
     14 -0.175725D-01 -0.886597D-03  0.620036D-02  0.620036D-02 -0.127692D-02
     15  0.193000D-01 -0.523283D-02  0.288020D-02  0.288020D-02  0.131936D-01
     16  0.509736D-02  0.470023D-02 -0.119739D-02 -0.119739D-02 -0.236169D-01
     17 -0.243973D-01  0.532600D-03 -0.168281D-02 -0.168281D-02  0.104233D-01
     18  0.434753D-02 -0.184018D-03  0.467918D-03  0.467918D-03  0.107819D-01
     19 -0.406375D-02  0.108045D-02 -0.385963D-03 -0.385963D-03  0.101344D-01
     20 -0.283779D-03 -0.896434D-03 -0.819552D-04 -0.819552D-04 -0.209162D-01
     21  0.000000D+00  0.000000D+00  0.465632D-02 -0.465632D-02  0.000000D+00
     22  0.000000D+00  0.000000D+00  0.419423D-02 -0.419423D-02  0.000000D+00
     23 -0.177015D-02 -0.445269D-02  0.704234D-04  0.508531D-02  0.729473D-03
     24 -0.177015D-02 -0.445269D-02 -0.391667D-03  0.554740D-02  0.729473D-03
     25  0.177015D-02  0.445269D-02 -0.508531D-02 -0.704234D-04 -0.729473D-03
     26  0.177015D-02  0.445269D-02 -0.554740D-02  0.391667D-03 -0.729473D-03
     27  0.000000D+00  0.000000D+00 -0.985665D-03  0.985665D-03  0.000000D+00
     28  0.000000D+00  0.000000D+00 -0.871696D-03  0.871696D-03  0.000000D+00
     29  0.000000D+00  0.000000D+00 -0.509613D-03  0.509613D-03  0.000000D+00
     30  0.000000D+00  0.000000D+00 -0.395644D-03  0.395644D-03  0.000000D+00
                6             7             8             9            10 
      6  0.330324D+00
      7  0.899431D-03  0.341358D+00
      8 -0.240307D-03  0.204500D-02  0.337100D+00
      9  0.348931D-02 -0.903795D-03  0.157949D-02  0.103166D+00
     10 -0.566696D-03  0.667558D-03 -0.160118D-03 -0.212449D-01  0.996827D-01
     11 -0.566696D-03  0.667558D-03 -0.160118D-03 -0.212449D-01 -0.171114D-01
     12 -0.116532D-02  0.115869D-03 -0.670520D-03 -0.380739D-01 -0.369296D-01
     13 -0.116532D-02  0.115869D-03 -0.670520D-03 -0.380739D-01  0.100426D-01
     14 -0.216939D-03 -0.673385D-03 -0.135773D-04  0.104427D-01 -0.374677D-01
     15 -0.124666D-01  0.480432D-02 -0.529585D-02 -0.121483D-01  0.905995D-02
     16  0.584983D-02 -0.166388D-02 -0.171152D-03  0.150112D-01 -0.757906D-02
     17  0.661678D-02 -0.314044D-02  0.546700D-02 -0.286283D-02 -0.148089D-02
     18 -0.297868D-02  0.492350D-02 -0.120877D-01 -0.426710D-03  0.116946D-02
     19  0.404511D-02 -0.114748D-01  0.576415D-02  0.390698D-03 -0.559914D-03
     20 -0.106643D-02  0.655130D-02  0.632354D-02  0.360116D-04 -0.609549D-03
     21  0.000000D+00  0.000000D+00  0.000000D+00  0.000000D+00  0.806403D-02
     22  0.000000D+00  0.000000D+00  0.000000D+00  0.000000D+00  0.528258D-02
     23 -0.506023D-03  0.130687D-04 -0.113026D-03 -0.731199D-02  0.160491D-02
     24 -0.506023D-03  0.130687D-04 -0.113026D-03 -0.731199D-02 -0.117653D-02
     25  0.506023D-03 -0.130687D-04  0.113026D-03  0.731199D-02 -0.525630D-02
     26  0.506023D-03 -0.130687D-04  0.113026D-03  0.731199D-02 -0.803775D-02
     27  0.000000D+00  0.000000D+00  0.000000D+00  0.000000D+00 -0.524445D-02
     28  0.000000D+00  0.000000D+00  0.000000D+00  0.000000D+00 -0.310182D-02
     29  0.000000D+00  0.000000D+00  0.000000D+00  0.000000D+00 -0.237897D-02
     30  0.000000D+00  0.000000D+00  0.000000D+00  0.000000D+00 -0.236337D-03
               11            12            13            14            15 
     11  0.996827D-01
     12  0.100426D-01  0.549317D-01
     13 -0.369296D-01  0.742271D-02  0.549317D-01
     14 -0.374677D-01  0.669474D-02  0.669474D-02  0.547083D-01
     15  0.905995D-02  0.431736D-03  0.431736D-03 -0.695872D-02  0.112313D+00
     16 -0.757906D-02 -0.237410D-02 -0.237410D-02  0.464424D-02 -0.553998D-01
     17 -0.148089D-02  0.194236D-02  0.194236D-02  0.231448D-02 -0.569135D-01
     18  0.116946D-02 -0.519519D-03 -0.519519D-03 -0.970242D-03  0.955595D-02
     19 -0.559914D-03  0.116715D-03  0.116715D-03  0.529803D-03 -0.791258D-02
     20 -0.609549D-03  0.402804D-03  0.402804D-03  0.440439D-03 -0.164337D-02
     21 -0.806403D-02  0.913074D-02 -0.913074D-02  0.000000D+00  0.000000D+00
     22 -0.528258D-02  0.100461D-01 -0.100461D-01  0.000000D+00  0.000000D+00
     23  0.525630D-02 -0.963163D-02  0.486654D-03  0.988176D-02  0.154577D-02
     24  0.803775D-02 -0.871631D-02 -0.428661D-03  0.988176D-02  0.154577D-02
     25 -0.160491D-02 -0.486654D-03  0.963163D-02 -0.988176D-02 -0.154577D-02
     26  0.117653D-02  0.428661D-03  0.871631D-02 -0.988176D-02 -0.154577D-02
     27  0.524445D-02  0.127174D-02 -0.127174D-02  0.000000D+00  0.000000D+00
     28  0.310182D-02  0.658779D-03 -0.658779D-03  0.000000D+00  0.000000D+00
     29  0.237897D-02  0.328766D-03 -0.328766D-03  0.000000D+00  0.000000D+00
     30  0.236337D-03 -0.284191D-03  0.284191D-03  0.000000D+00  0.000000D+00
               16            17            18            19            20 
     16  0.889650D-01
     17 -0.335653D-01  0.904788D-01
     18 -0.102160D-02 -0.853435D-02  0.784875D-01
     19 -0.205364D-02  0.996622D-02 -0.434831D-01  0.789324D-01
     20  0.307524D-02 -0.143186D-02 -0.350044D-01 -0.354493D-01  0.704537D-01
     21  0.000000D+00  0.000000D+00  0.000000D+00  0.000000D+00  0.000000D+00
     22  0.000000D+00  0.000000D+00  0.000000D+00  0.000000D+00  0.000000D+00
     23 -0.203185D-02  0.486077D-03  0.154336D-03 -0.329269D-04 -0.121409D-03
     24 -0.203185D-02  0.486077D-03  0.154336D-03 -0.329269D-04 -0.121409D-03
     25  0.203185D-02 -0.486077D-03 -0.154336D-03  0.329269D-04  0.121409D-03
     26  0.203185D-02 -0.486077D-03 -0.154336D-03  0.329269D-04  0.121409D-03
     27  0.000000D+00  0.000000D+00  0.000000D+00  0.000000D+00  0.000000D+00
     28  0.000000D+00  0.000000D+00  0.000000D+00  0.000000D+00  0.000000D+00
     29  0.000000D+00  0.000000D+00  0.000000D+00  0.000000D+00  0.000000D+00
     30  0.000000D+00  0.000000D+00  0.000000D+00  0.000000D+00  0.000000D+00
               21            22            23            24            25 
     21  0.139801D-01
     22  0.971834D-02  0.133024D-01
     23 -0.309619D-02 -0.662871D-02  0.130097D-01
     24 -0.735791D-02 -0.304468D-02  0.947714D-02  0.137904D-01
     25 -0.309619D-02 -0.662871D-02 -0.387246D-02 -0.740498D-02  0.130097D-01
     26 -0.735791D-02 -0.304468D-02 -0.740498D-02 -0.309176D-02  0.947714D-02
     27 -0.370397D-02  0.173446D-02 -0.175251D-02  0.368592D-02 -0.175251D-02
     28 -0.189862D-02  0.926609D-03 -0.625865D-03  0.219937D-02 -0.625865D-03
     29  0.686514D-03 -0.195785D-02  0.188675D-02 -0.757621D-03  0.188675D-02
     30  0.249186D-02 -0.276570D-02  0.301339D-02 -0.224418D-02  0.301339D-02
               26            27            28            29            30 
     26  0.137904D-01
     27  0.368592D-02  0.207636D-01
     28  0.219937D-02  0.914086D-03  0.182675D-01
     29 -0.757621D-03  0.151609D-01 -0.199650D-02  0.178852D-01
     30 -0.224418D-02 -0.468865D-02  0.153569D-01  0.727760D-03  0.207733D-01
 Leave Link  716 at Sat Feb 16 13:51:01 2019, MaxMem=   196608000 cpu:         0.5
 (Enter /cm/shared/c3ddb/gaussian/09.d01/g09/l103.exe)

 GradGradGradGradGradGradGradGradGradGradGradGradGradGradGradGradGradGrad
 Berny optimization.
 Red2BG is reusing G-inverse.
 Internal  Forces:  Max     0.019602630 RMS     0.004544573
 Search for a local minimum.
 Step number   1 out of a maximum of   40
 All quantities printed in internal units (Hartrees-Bohrs-Radians)
 RMS Force = .45446D-02 SwitMx=.10000D-02 MixMth= 1
 Mixed Optimization -- RFO/linear search
 Second derivative matrix not updated -- analytic derivatives used.
 ITU=  0
     Eigenvalues ---    0.00226   0.01884   0.03120   0.03797   0.05625
     Eigenvalues ---    0.05709   0.10287   0.10809   0.11816   0.12063
     Eigenvalues ---    0.14147   0.14230   0.17973   0.29595   0.30845
     Eigenvalues ---    0.31620   0.32501   0.33237   0.33832   0.34274
     Eigenvalues ---    0.57351
 RFO step:  Lambda=-1.36738396D-03 EMin= 2.25866135D-03
 Linear search not attempted -- first point.
 Iteration  1 RMS(Cart)=  0.01574521 RMS(Int)=  0.00004155
 Iteration  2 RMS(Cart)=  0.00008582 RMS(Int)=  0.00000139
 Iteration  3 RMS(Cart)=  0.00000001 RMS(Int)=  0.00000139
 ITry= 1 IFail=0 DXMaxC= 4.49D-02 DCOld= 1.00D+10 DXMaxT= 3.00D-01 DXLimC= 3.00D+00 Rises=F
 ClnCor:  largest displacement from symmetrization is 1.77D-08 for atom     8.
 Variable       Old X    -DE/DX   Delta X   Delta X   Delta X     New X
                                 (Linear)    (Quad)   (Total)
    R1        2.85701  -0.00686   0.00000  -0.02207  -0.02207   2.83493
    R2        2.08161  -0.00578   0.00000  -0.01734  -0.01734   2.06427
    R3        2.08837  -0.00598   0.00000  -0.01816  -0.01816   2.07021
    R4        2.08837  -0.00598   0.00000  -0.01816  -0.01816   2.07021
    R5        2.54408  -0.01960   0.00000  -0.03339  -0.03339   2.51069
    R6        2.07162  -0.00521   0.00000  -0.01421  -0.01421   2.05741
    R7        2.06304  -0.00519   0.00000  -0.01446  -0.01446   2.04858
    R8        2.06666  -0.00513   0.00000  -0.01429  -0.01429   2.05238
    A1        1.94067   0.00057   0.00000   0.00600   0.00600   1.94667
    A2        1.93990  -0.00034   0.00000  -0.00164  -0.00165   1.93826
    A3        1.93990  -0.00034   0.00000  -0.00164  -0.00165   1.93826
    A4        1.88909  -0.00003   0.00000  -0.00066  -0.00066   1.88843
    A5        1.88909  -0.00003   0.00000  -0.00066  -0.00066   1.88843
    A6        1.86233   0.00016   0.00000  -0.00166  -0.00167   1.86066
    A7        2.17795   0.00063   0.00000   0.00881   0.00881   2.18676
    A8        2.02417   0.00040   0.00000  -0.00085  -0.00085   2.02332
    A9        2.08107  -0.00103   0.00000  -0.00796  -0.00796   2.07311
   A10        2.12707  -0.00063   0.00000  -0.00357  -0.00357   2.12350
   A11        2.11754   0.00019   0.00000   0.00456   0.00456   2.12210
   A12        2.03857   0.00044   0.00000  -0.00099  -0.00099   2.03758
    D1        0.00000   0.00000   0.00000   0.00000   0.00000   0.00000
    D2       -3.14159   0.00000   0.00000   0.00000   0.00000   3.14159
    D3       -2.10583  -0.00012   0.00000  -0.00212  -0.00211  -2.10794
    D4        1.03577  -0.00012   0.00000  -0.00212  -0.00211   1.03365
    D5        2.10583   0.00012   0.00000   0.00212   0.00211   2.10794
    D6       -1.03577   0.00012   0.00000   0.00212   0.00211  -1.03365
    D7        3.14159   0.00000   0.00000   0.00000   0.00000  -3.14159
    D8        0.00000   0.00000   0.00000   0.00000   0.00000   0.00000
    D9        0.00000   0.00000   0.00000   0.00000   0.00000   0.00000
   D10        3.14159   0.00000   0.00000   0.00000   0.00000   3.14159
         Item               Value     Threshold  Converged?
 Maximum Force            0.019603     0.000450     NO 
 RMS     Force            0.004545     0.000300     NO 
 Maximum Displacement     0.044900     0.001800     NO 
 RMS     Displacement     0.015758     0.001200     NO 
 Predicted change in Energy=-6.860281D-04
 Lowest energy point so far.  Saving SCF results.
 GradGradGradGradGradGradGradGradGradGradGradGradGradGradGradGradGradGrad

 Leave Link  103 at Sat Feb 16 13:51:05 2019, MaxMem=   196608000 cpu:        19.7
 (Enter /cm/shared/c3ddb/gaussian/09.d01/g09/l202.exe)
                          Input orientation:                          
 ---------------------------------------------------------------------
 Center     Atomic      Atomic             Coordinates (Angstroms)
 Number     Number       Type             X           Y           Z
 ---------------------------------------------------------------------
      1          6           0       -1.102393    0.120781   -0.259677
      2          6           0        0.161726   -0.250275    0.457867
      3          6           0        1.392124    0.012120    0.030736
      4          1           0       -0.893456    0.643718   -1.195701
      5          1           0       -1.731637    0.768187    0.360847
      6          1           0       -1.699467   -0.768275   -0.490362
      7          1           0        0.035908   -0.776362    1.402718
      8          1           0        2.266897   -0.284052    0.598399
      9          1           0        1.570297    0.534159   -0.904828
 ---------------------------------------------------------------------
                    Distance matrix (angstroms):
                    1          2          3          4          5
     1  C    0.000000
     2  C    1.500183   0.000000
     3  C    2.513714   1.328598   0.000000
     4  H    1.092364   2.155672   2.669633   0.000000
     5  H    1.095506   2.152092   3.230866   1.772254   0.000000
     6  H    1.095506   2.152092   3.230866   1.772254   1.756789
     7  H    2.205482   1.088733   2.084073   3.103567   2.568140
     8  H    3.500328   2.110127   1.084061   3.750651   4.141487
     9  H    2.780354   2.111006   1.086070   2.483282   3.543934
                    6          7          8          9
     6  H    0.000000
     7  H    2.568140   0.000000
     8  H    4.141487   2.422108   0.000000
     9  H    3.543934   3.065384   1.847813   0.000000
 Stoichiometry    C3H6
 Framework group  CS[SG(C3H4),X(H2)]
 Deg. of freedom    14
 Full point group                 CS      NOp   2
 RotChk:  IX=0 Diff= 1.88D+00
 Largest Abelian subgroup         CS      NOp   2
 Largest concise Abelian subgroup CS      NOp   2
                         Standard orientation:                         
 ---------------------------------------------------------------------
 Center     Atomic      Atomic             Coordinates (Angstroms)
 Number     Number       Type             X           Y           Z
 ---------------------------------------------------------------------
      1          6           0        1.135802   -0.506957    0.000000
      2          6           0        0.000000    0.473094    0.000000
      3          6           0       -1.289590    0.153520    0.000000
      4          1           0        0.775586   -1.538220    0.000000
      5          1           0        1.775526   -0.367995    0.878395
      6          1           0        1.775526   -0.367995   -0.878395
      7          1           0        0.279261    1.525403    0.000000
      8          1           0       -2.063936    0.912187    0.000000
      9          1           0       -1.619234   -0.881316    0.000000
 ---------------------------------------------------------------------
 Rotational constants (GHZ):     47.0330754      9.2863208      8.1438395
 Leave Link  202 at Sat Feb 16 13:51:05 2019, MaxMem=   196608000 cpu:         0.3
 (Enter /cm/shared/c3ddb/gaussian/09.d01/g09/l301.exe)
 Standard basis: 6-311G(2d,d,p) (5D, 7F)
 Ernie: Thresh=  0.10000D-02 Tol=  0.10000D-05 Strict=F.
 There are    68 symmetry adapted cartesian basis functions of A'  symmetry.
 There are    25 symmetry adapted cartesian basis functions of A"  symmetry.
 There are    65 symmetry adapted basis functions of A'  symmetry.
 There are    25 symmetry adapted basis functions of A"  symmetry.
    90 basis functions,   144 primitive gaussians,    93 cartesian basis functions
    12 alpha electrons       12 beta electrons
       nuclear repulsion energy        70.7538184129 Hartrees.
 IExCor=  402 DFT=T Ex+Corr=B3LYP ExCW=0 ScaHFX=  0.200000
 ScaDFX=  0.800000  0.720000  1.000000  0.810000 ScalE2=  1.000000  1.000000
 IRadAn=      0 IRanWt=     -1 IRanGd=            0 ICorTp=0 IEmpDi=  4
 NAtoms=    9 NActive=    9 NUniq=    8 SFac= 1.27D+00 NAtFMM=   60 NAOKFM=F Big=F
 Integral buffers will be    131072 words long.
 Raffenetti 2 integral format.
 Two-electron integral symmetry is turned on.
 Leave Link  301 at Sat Feb 16 13:51:05 2019, MaxMem=   196608000 cpu:         0.3
 (Enter /cm/shared/c3ddb/gaussian/09.d01/g09/l302.exe)
 NPDir=0 NMtPBC=     1 NCelOv=     1 NCel=       1 NClECP=     1 NCelD=      1
         NCelK=      1 NCelE2=     1 NClLst=     1 CellRange=     0.0.
 One-electron integrals computed using PRISM.
 One-electron integral symmetry used in STVInt
 NBasis=    90 RedAO= T EigKep=  3.40D-03  NBF=    65    25
 NBsUse=    90 1.00D-06 EigRej= -1.00D+00 NBFU=    65    25
 Precomputing XC quadrature grid using
 IXCGrd= 4 IRadAn=           0 IRanWt=          -1 IRanGd=           0 AccXCQ= 0.00D+00.
 Generated NRdTot=       0 NPtTot=           0 NUsed=           0 NTot=          32
 NSgBfM=    93    93    93    93    93 MxSgAt=     9 MxSgA2=     9.
 Leave Link  302 at Sat Feb 16 13:51:06 2019, MaxMem=   196608000 cpu:         6.5
 (Enter /cm/shared/c3ddb/gaussian/09.d01/g09/l303.exe)
 DipDrv:  MaxL=1.
 Leave Link  303 at Sat Feb 16 13:51:07 2019, MaxMem=   196608000 cpu:         1.1
 (Enter /cm/shared/c3ddb/gaussian/09.d01/g09/l401.exe)
 Initial guess from the checkpoint file:  "check.chk"
 B after Tr=     0.000000    0.000000    0.000000
         Rot=    0.747110    0.000000    0.000000   -0.664700 Ang= -83.32 deg.
 Guess basis will be translated and rotated to current coordinates.
 JPrj=2 DoOrth=T DoCkMO=T.
 Initial guess orbital symmetries:
       Occupied  (A') (A') (A') (A') (A') (A') (A') (A') (A") (A')
                 (A') (A")
       Virtual   (A') (A') (A') (A') (A') (A') (A') (A') (A') (A')
                 (A') (A') (A') (A') (A') (A') (A') (A') (A') (A')
                 (A') (A') (A') (A') (A') (A') (A') (A') (A') (A')
                 (A') (A') (A') (A') (A') (A') (A') (A') (A') (A')
                 (A') (A') (A') (A') (A') (A') (A') (A') (A') (A')
                 (A') (A') (A') (A') (A') (A") (A") (A") (A") (A")
                 (A") (A") (A") (A") (A") (A") (A") (A") (A") (A")
                 (A") (A") (A") (A") (A") (A") (A") (A")
 The electronic state of the initial guess is 1-A'.
 Generating alternative initial guess.
 ExpMin= 1.03D-01 ExpMax= 4.56D+03 ExpMxC= 6.82D+02 IAcc=1 IRadAn=         1 AccDes= 0.00D+00
 Harris functional with IExCor=  402 and IRadAn=       1 diagonalized for initial guess.
 HarFok:  IExCor=  402 AccDes= 0.00D+00 IRadAn=         1 IDoV= 1 UseB2=F ITyADJ=14
 ICtDFT=  3500011 ScaDFX=  1.000000  1.000000  1.000000  1.000000
 FoFCou: FMM=F IPFlag=           0 FMFlag=      100000 FMFlg1=           0
         NFxFlg=           0 DoJE=T BraDBF=F KetDBF=T FulRan=T
         wScrn=  0.000000 ICntrl=     500 IOpCl=  0 I1Cent=   200000004 NGrid=           0
         NMat0=    1 NMatS0=      1 NMatT0=    0 NMatD0=    1 NMtDS0=    0 NMtDT0=    0
 Petite list used in FoFCou.
 Harris En= -118.001234158944    
 Leave Link  401 at Sat Feb 16 13:51:09 2019, MaxMem=   196608000 cpu:        15.6
 (Enter /cm/shared/c3ddb/gaussian/09.d01/g09/l502.exe)
 Closed shell SCF:
 Using DIIS extrapolation, IDIIS=  1040.
 Integral symmetry usage will be decided dynamically.
 Keep R1 ints in memory in symmetry-blocked form, NReq=12802219.
 IVT=       33471 IEndB=       33471 NGot=   196608000 MDV=   192192432
 LenX=   192192432 LenY=   192183342
 Requested convergence on RMS density matrix=1.00D-08 within  64 cycles.
 Requested convergence on MAX density matrix=1.00D-06.
 Requested convergence on             energy=1.00D-06.
 No special actions if energy rises.
 FoFCou: FMM=F IPFlag=           0 FMFlag=           0 FMFlg1=           0
         NFxFlg=           0 DoJE=F BraDBF=F KetDBF=F FulRan=T
         wScrn=  0.000000 ICntrl=     600 IOpCl=  0 I1Cent=           0 NGrid=           0
         NMat0=    1 NMatS0=   4095 NMatT0=    0 NMatD0=    1 NMtDS0=    0 NMtDT0=    0
 Petite list used in FoFCou.
 Integral accuracy reduced to 1.0D-05 until final iterations.

 Cycle   1  Pass 0  IDiag  1:
 E= -117.943862501996    
 DIIS: error= 1.21D-03 at cycle   1 NSaved=   1.
 NSaved= 1 IEnMin= 1 EnMin= -117.943862501996     IErMin= 1 ErrMin= 1.21D-03
 ErrMax= 1.21D-03  0.00D+00 EMaxC= 1.00D-01 BMatC= 2.04D-04 BMatP= 2.04D-04
 IDIUse=3 WtCom= 9.88D-01 WtEn= 1.21D-02
 Coeff-Com:  0.100D+01
 Coeff-En:   0.100D+01
 Coeff:      0.100D+01
 Gap=     0.694 Goal=   None    Shift=    0.000
 GapD=    0.694 DampG=2.000 DampE=1.000 DampFc=2.0000 IDamp=-1.
 RMSDP=1.42D-04 MaxDP=2.06D-03              OVMax= 4.80D-03

 Cycle   2  Pass 0  IDiag  1:
 E= -117.943998925890     Delta-E=       -0.000136423894 Rises=F Damp=F
 DIIS: error= 7.98D-04 at cycle   2 NSaved=   2.
 NSaved= 2 IEnMin= 2 EnMin= -117.943998925890     IErMin= 2 ErrMin= 7.98D-04
 ErrMax= 7.98D-04  0.00D+00 EMaxC= 1.00D-01 BMatC= 4.42D-05 BMatP= 2.04D-04
 IDIUse=3 WtCom= 9.92D-01 WtEn= 7.98D-03
 Coeff-Com:  0.249D+00 0.751D+00
 Coeff-En:   0.000D+00 0.100D+01
 Coeff:      0.247D+00 0.753D+00
 Gap=     0.275 Goal=   None    Shift=    0.000
 RMSDP=8.47D-05 MaxDP=1.71D-03 DE=-1.36D-04 OVMax= 2.70D-03

 Cycle   3  Pass 0  IDiag  1:
 E= -117.944026465188     Delta-E=       -0.000027539299 Rises=F Damp=F
 DIIS: error= 5.08D-04 at cycle   3 NSaved=   3.
 NSaved= 3 IEnMin= 3 EnMin= -117.944026465188     IErMin= 3 ErrMin= 5.08D-04
 ErrMax= 5.08D-04  0.00D+00 EMaxC= 1.00D-01 BMatC= 1.81D-05 BMatP= 4.42D-05
 IDIUse=3 WtCom= 9.95D-01 WtEn= 5.08D-03
 Coeff-Com:  0.475D-02 0.389D+00 0.607D+00
 Coeff-En:   0.000D+00 0.292D+00 0.708D+00
 Coeff:      0.472D-02 0.388D+00 0.607D+00
 Gap=     0.275 Goal=   None    Shift=    0.000
 RMSDP=3.68D-05 MaxDP=6.47D-04 DE=-2.75D-05 OVMax= 1.53D-03

 Cycle   4  Pass 0  IDiag  1:
 E= -117.944044591251     Delta-E=       -0.000018126063 Rises=F Damp=F
 DIIS: error= 1.71D-04 at cycle   4 NSaved=   4.
 NSaved= 4 IEnMin= 4 EnMin= -117.944044591251     IErMin= 4 ErrMin= 1.71D-04
 ErrMax= 1.71D-04  0.00D+00 EMaxC= 1.00D-01 BMatC= 1.03D-06 BMatP= 1.81D-05
 IDIUse=3 WtCom= 9.98D-01 WtEn= 1.71D-03
 Coeff-Com: -0.210D-02 0.213D+00 0.359D+00 0.430D+00
 Coeff-En:   0.000D+00 0.000D+00 0.000D+00 0.100D+01
 Coeff:     -0.209D-02 0.213D+00 0.358D+00 0.431D+00
 Gap=     0.275 Goal=   None    Shift=    0.000
 RMSDP=8.26D-06 MaxDP=1.72D-04 DE=-1.81D-05 OVMax= 6.75D-04

 Initial convergence to 1.0D-05 achieved.  Increase integral accuracy.
 Cycle   5  Pass 1  IDiag  1:
 E= -117.944055706261     Delta-E=       -0.000011115009 Rises=F Damp=F
 DIIS: error= 3.27D-05 at cycle   1 NSaved=   1.
 NSaved= 1 IEnMin= 1 EnMin= -117.944055706261     IErMin= 1 ErrMin= 3.27D-05
 ErrMax= 3.27D-05  0.00D+00 EMaxC= 1.00D-01 BMatC= 5.61D-08 BMatP= 5.61D-08
 IDIUse=1 WtCom= 1.00D+00 WtEn= 0.00D+00
 Coeff-Com:  0.100D+01
 Coeff:      0.100D+01
 Gap=     0.275 Goal=   None    Shift=    0.000
 RMSDP=8.26D-06 MaxDP=1.72D-04 DE=-1.11D-05 OVMax= 3.49D-04

 Cycle   6  Pass 1  IDiag  1:
 E= -117.944055603781     Delta-E=        0.000000102479 Rises=F Damp=F
 DIIS: error= 6.62D-05 at cycle   2 NSaved=   2.
 NSaved= 2 IEnMin= 1 EnMin= -117.944055706261     IErMin= 1 ErrMin= 3.27D-05
 ErrMax= 6.62D-05  0.00D+00 EMaxC= 1.00D-01 BMatC= 1.57D-07 BMatP= 5.61D-08
 IDIUse=1 WtCom= 1.00D+00 WtEn= 0.00D+00
 Coeff-Com:  0.631D+00 0.369D+00
 Coeff:      0.631D+00 0.369D+00
 Gap=     0.275 Goal=   None    Shift=    0.000
 RMSDP=2.91D-06 MaxDP=5.98D-05 DE= 1.02D-07 OVMax= 2.40D-04

 Cycle   7  Pass 1  IDiag  1:
 E= -117.944055763850     Delta-E=       -0.000000160068 Rises=F Damp=F
 DIIS: error= 5.52D-06 at cycle   3 NSaved=   3.
 NSaved= 3 IEnMin= 3 EnMin= -117.944055763850     IErMin= 3 ErrMin= 5.52D-06
 ErrMax= 5.52D-06  0.00D+00 EMaxC= 1.00D-01 BMatC= 1.45D-09 BMatP= 5.61D-08
 IDIUse=1 WtCom= 1.00D+00 WtEn= 0.00D+00
 Coeff-Com:  0.161D+00 0.134D+00 0.706D+00
 Coeff:      0.161D+00 0.134D+00 0.706D+00
 Gap=     0.275 Goal=   None    Shift=    0.000
 RMSDP=4.17D-07 MaxDP=6.46D-06 DE=-1.60D-07 OVMax= 1.76D-05

 Cycle   8  Pass 1  IDiag  1:
 E= -117.944055765125     Delta-E=       -0.000000001275 Rises=F Damp=F
 DIIS: error= 1.80D-06 at cycle   4 NSaved=   4.
 NSaved= 4 IEnMin= 4 EnMin= -117.944055765125     IErMin= 4 ErrMin= 1.80D-06
 ErrMax= 1.80D-06  0.00D+00 EMaxC= 1.00D-01 BMatC= 2.26D-10 BMatP= 1.45D-09
 IDIUse=1 WtCom= 1.00D+00 WtEn= 0.00D+00
 Coeff-Com:  0.832D-02 0.230D-01 0.328D+00 0.641D+00
 Coeff:      0.832D-02 0.230D-01 0.328D+00 0.641D+00
 Gap=     0.275 Goal=   None    Shift=    0.000
 RMSDP=1.35D-07 MaxDP=2.52D-06 DE=-1.27D-09 OVMax= 4.03D-06

 Cycle   9  Pass 1  IDiag  1:
 E= -117.944055765356     Delta-E=       -0.000000000231 Rises=F Damp=F
 DIIS: error= 2.63D-07 at cycle   5 NSaved=   5.
 NSaved= 5 IEnMin= 5 EnMin= -117.944055765356     IErMin= 5 ErrMin= 2.63D-07
 ErrMax= 2.63D-07  0.00D+00 EMaxC= 1.00D-01 BMatC= 6.01D-12 BMatP= 2.26D-10
 IDIUse=1 WtCom= 1.00D+00 WtEn= 0.00D+00
 Coeff-Com: -0.602D-02 0.347D-04 0.746D-01 0.221D+00 0.710D+00
 Coeff:     -0.602D-02 0.347D-04 0.746D-01 0.221D+00 0.710D+00
 Gap=     0.275 Goal=   None    Shift=    0.000
 RMSDP=2.32D-08 MaxDP=3.52D-07 DE=-2.31D-10 OVMax= 6.52D-07

 Cycle  10  Pass 1  IDiag  1:
 E= -117.944055765362     Delta-E=       -0.000000000006 Rises=F Damp=F
 DIIS: error= 3.41D-08 at cycle   6 NSaved=   6.
 NSaved= 6 IEnMin= 6 EnMin= -117.944055765362     IErMin= 6 ErrMin= 3.41D-08
 ErrMax= 3.41D-08  0.00D+00 EMaxC= 1.00D-01 BMatC= 6.71D-14 BMatP= 6.01D-12
 IDIUse=1 WtCom= 1.00D+00 WtEn= 0.00D+00
 Coeff-Com: -0.165D-02-0.586D-03 0.129D-01 0.423D-01 0.169D+00 0.778D+00
 Coeff:     -0.165D-02-0.586D-03 0.129D-01 0.423D-01 0.169D+00 0.778D+00
 Gap=     0.275 Goal=   None    Shift=    0.000
 RMSDP=3.31D-09 MaxDP=5.32D-08 DE=-6.22D-12 OVMax= 1.09D-07

 SCF Done:  E(RB3LYP) =  -117.944055765     A.U. after   10 cycles
            NFock= 10  Conv=0.33D-08     -V/T= 2.0050
 KE= 1.173545254761D+02 PE=-4.143342813120D+02 EE= 1.082818816576D+02
 Leave Link  502 at Sat Feb 16 13:51:26 2019, MaxMem=   196608000 cpu:       109.3
 (Enter /cm/shared/c3ddb/gaussian/09.d01/g09/l508.exe)
 QCSCF skips out because SCF is already converged.
 Leave Link  508 at Sat Feb 16 13:51:26 2019, MaxMem=   196608000 cpu:         0.0
 (Enter /cm/shared/c3ddb/gaussian/09.d01/g09/l701.exe)
 Compute integral first derivatives.
 ... and contract with generalized density number  0.
 Leave Link  701 at Sat Feb 16 13:51:27 2019, MaxMem=   196608000 cpu:         5.4
 (Enter /cm/shared/c3ddb/gaussian/09.d01/g09/l702.exe)
 L702 exits ... SP integral derivatives will be done elsewhere.
 Leave Link  702 at Sat Feb 16 13:51:27 2019, MaxMem=   196608000 cpu:         0.2
 (Enter /cm/shared/c3ddb/gaussian/09.d01/g09/l703.exe)
 Compute integral first derivatives, UseDBF=F ICtDFT=           0.
 Integral derivatives from FoFJK, PRISM(SPDF).
 Calling FoFJK, ICntrl=      2127 FMM=F ISym2X=1 I1Cent= 0 IOpClX= 0 NMat=1 NMatS=1 NMatT=0.
 FoFJK:  IHMeth= 1 ICntrl=    2127 DoSepK=F KAlg= 0 I1Cent=   0 FoldK=F
 IRaf=         0 NMat=   1 IRICut=       1 DoRegI=T DoRafI=F ISym2E= 1.
 FoFCou: FMM=F IPFlag=           0 FMFlag=      100000 FMFlg1=         800
         NFxFlg=           0 DoJE=F BraDBF=F KetDBF=F FulRan=T
         wScrn=  0.000000 ICntrl=    2127 IOpCl=  0 I1Cent=           0 NGrid=           0
         NMat0=    1 NMatS0=      1 NMatT0=    0 NMatD0=    1 NMtDS0=    0 NMtDT0=    0
 Petite list used in FoFCou.
 Leave Link  703 at Sat Feb 16 13:51:29 2019, MaxMem=   196608000 cpu:         7.1
 (Enter /cm/shared/c3ddb/gaussian/09.d01/g09/l716.exe)
 Dipole        = 1.49205151D-01-1.11390164D-02-4.09507473D-19
 ***** Axes restored to original set *****
 -------------------------------------------------------------------
 Center     Atomic                   Forces (Hartrees/Bohr)
 Number     Number              X              Y              Z
 -------------------------------------------------------------------
      1        6          -0.000024511   -0.000000527    0.000000025
      2        6          -0.000624903   -0.000136655    0.000223050
      3        6           0.000732325    0.000124583   -0.000197199
      4        1          -0.000019207    0.000057395   -0.000104326
      5        1          -0.000082994    0.000071252    0.000071753
      6        1          -0.000079383   -0.000101220   -0.000023798
      7        1          -0.000043080   -0.000050995    0.000090420
      8        1           0.000076664   -0.000015189    0.000030314
      9        1           0.000065089    0.000051356   -0.000090239
 -------------------------------------------------------------------
 Cartesian Forces:  Max     0.000732325 RMS     0.000204911
 Leave Link  716 at Sat Feb 16 13:51:29 2019, MaxMem=   196608000 cpu:         0.2
 (Enter /cm/shared/c3ddb/gaussian/09.d01/g09/l103.exe)

 GradGradGradGradGradGradGradGradGradGradGradGradGradGradGradGradGradGrad
 Berny optimization.
 Using GEDIIS/GDIIS optimizer.
 FormGI is forming the generalized inverse of G from B-inverse, IUseBI=4.
 Internal  Forces:  Max     0.000923879 RMS     0.000184178
 Search for a local minimum.
 Step number   2 out of a maximum of   40
 All quantities printed in internal units (Hartrees-Bohrs-Radians)
 RMS Force = .18418D-03 SwitMx=.10000D-02 MixMth= 2
 Mixed Optimization -- En-DIIS/RFO-DIIS
 Update second derivatives using D2CorX and points    1    2
 DE= -6.69D-04 DEPred=-6.86D-04 R= 9.75D-01
 TightC=F SS=  1.41D+00  RLast= 5.85D-02 DXNew= 5.0454D-01 1.7536D-01
 Trust test= 9.75D-01 RLast= 5.85D-02 DXMaxT set to 3.00D-01
 ITU=  1  0
 Use linear search instead of GDIIS.
     Eigenvalues ---    0.00226   0.01884   0.03120   0.03797   0.05625
     Eigenvalues ---    0.05708   0.10287   0.10807   0.11804   0.12054
     Eigenvalues ---    0.14146   0.14214   0.17964   0.29605   0.30845
     Eigenvalues ---    0.31639   0.32624   0.33264   0.33840   0.34276
     Eigenvalues ---    0.59276
 RFO step:  Lambda=-6.13033709D-07 EMin= 2.25866133D-03
 Quartic linear search produced a step of -0.03023.
 Iteration  1 RMS(Cart)=  0.00102804 RMS(Int)=  0.00000026
 Iteration  2 RMS(Cart)=  0.00000036 RMS(Int)=  0.00000003
 ITry= 1 IFail=0 DXMaxC= 3.54D-03 DCOld= 1.00D+10 DXMaxT= 3.00D-01 DXLimC= 3.00D+00 Rises=F
 ClnCor:  largest displacement from symmetrization is 2.30D-08 for atom     8.
 Variable       Old X    -DE/DX   Delta X   Delta X   Delta X     New X
                                 (Linear)    (Quad)   (Total)
    R1        2.83493   0.00021   0.00067  -0.00021   0.00045   2.83539
    R2        2.06427   0.00011   0.00052  -0.00023   0.00029   2.06456
    R3        2.07021   0.00013   0.00055  -0.00018   0.00037   2.07058
    R4        2.07021   0.00013   0.00055  -0.00018   0.00037   2.07058
    R5        2.51069   0.00092   0.00101   0.00047   0.00148   2.51217
    R6        2.05741   0.00011   0.00043  -0.00015   0.00028   2.05769
    R7        2.04858   0.00008   0.00044  -0.00025   0.00019   2.04877
    R8        2.05238   0.00011   0.00043  -0.00016   0.00027   2.05264
    A1        1.94667   0.00006  -0.00018   0.00079   0.00061   1.94728
    A2        1.93826   0.00000   0.00005  -0.00023  -0.00018   1.93808
    A3        1.93826   0.00000   0.00005  -0.00023  -0.00018   1.93808
    A4        1.88843  -0.00002   0.00002  -0.00008  -0.00006   1.88837
    A5        1.88843  -0.00002   0.00002  -0.00008  -0.00006   1.88837
    A6        1.86066  -0.00001   0.00005  -0.00022  -0.00017   1.86049
    A7        2.18676   0.00014  -0.00027   0.00107   0.00080   2.18756
    A8        2.02332  -0.00010   0.00003  -0.00055  -0.00053   2.02279
    A9        2.07311  -0.00004   0.00024  -0.00051  -0.00027   2.07284
   A10        2.12350  -0.00001   0.00011  -0.00038  -0.00027   2.12323
   A11        2.12210   0.00005  -0.00014   0.00053   0.00039   2.12249
   A12        2.03758  -0.00004   0.00003  -0.00014  -0.00011   2.03747
    D1        0.00000   0.00000   0.00000   0.00000   0.00000   0.00000
    D2        3.14159   0.00000   0.00000   0.00000   0.00000   3.14159
    D3       -2.10794  -0.00001   0.00006  -0.00029  -0.00022  -2.10816
    D4        1.03365  -0.00001   0.00006  -0.00029  -0.00022   1.03343
    D5        2.10794   0.00001  -0.00006   0.00029   0.00022   2.10816
    D6       -1.03365   0.00001  -0.00006   0.00029   0.00022  -1.03343
    D7        3.14159   0.00000   0.00000   0.00000   0.00000   3.14159
    D8        0.00000   0.00000   0.00000   0.00000   0.00000   0.00000
    D9        0.00000   0.00000   0.00000   0.00000   0.00000   0.00000
   D10        3.14159   0.00000   0.00000   0.00000   0.00000   3.14159
         Item               Value     Threshold  Converged?
 Maximum Force            0.000924     0.000450     NO 
 RMS     Force            0.000184     0.000300     YES
 Maximum Displacement     0.003538     0.001800     NO 
 RMS     Displacement     0.001028     0.001200     YES
 Predicted change in Energy=-9.775582D-07
 Lowest energy point so far.  Saving SCF results.
 GradGradGradGradGradGradGradGradGradGradGradGradGradGradGradGradGradGrad

 Leave Link  103 at Sat Feb 16 13:51:32 2019, MaxMem=   196608000 cpu:        17.8
 (Enter /cm/shared/c3ddb/gaussian/09.d01/g09/l202.exe)
                          Input orientation:                          
 ---------------------------------------------------------------------
 Center     Atomic      Atomic             Coordinates (Angstroms)
 Number     Number       Type             X           Y           Z
 ---------------------------------------------------------------------
      1          6           0       -1.102897    0.120829   -0.259783
      2          6           0        0.161685   -0.250084    0.457521
      3          6           0        1.393047    0.012186    0.030653
      4          1           0       -0.894932    0.643919   -1.196120
      5          1           0       -1.732149    0.768065    0.361256
      6          1           0       -1.699974   -0.768574   -0.490051
      7          1           0        0.035631   -0.776234    1.402476
      8          1           0        2.267420   -0.284340    0.598938
      9          1           0        1.572169    0.534232   -0.904889
 ---------------------------------------------------------------------
                    Distance matrix (angstroms):
                    1          2          3          4          5
     1  C    0.000000
     2  C    1.500422   0.000000
     3  C    2.515132   1.329381   0.000000
     4  H    1.092520   2.156434   2.671873   0.000000
     5  H    1.095702   2.152324   3.232259   1.772502   0.000000
     6  H    1.095702   2.152324   3.232259   1.772502   1.756991
     7  H    2.205464   1.088881   2.084725   3.104107   2.567887
     8  H    3.501513   2.110756   1.084160   3.752914   4.142535
     9  H    2.782632   2.112056   1.086212   2.486651   3.546311
[...]
 IDIUse=1 WtCom= 1.00D+00 WtEn= 0.00D+00
 Coeff-Com: -0.236D-05 0.676D-04-0.490D-03-0.156D-02 0.961D-02 0.164D-01
 Coeff-Com: -0.133D+00-0.967D-01 0.121D+01
 Coeff:     -0.236D-05 0.676D-04-0.490D-03-0.156D-02 0.961D-02 0.164D-01
 Coeff:     -0.133D+00-0.967D-01 0.121D+01
 Gap=     0.402 Goal=   None    Shift=    0.000
 RMSDP=1.95D-08 MaxDP=4.07D-07 DE=-2.56D-11 OVMax= 1.50D-06

 Cycle  10  Pass 1  IDiag  1:
 E= -117.113449826257     Delta-E=       -0.000000000004 Rises=F Damp=F
 DIIS: error= 3.78D-08 at cycle  10 NSaved=  10.
 NSaved=10 IEnMin=10 EnMin= -117.113449826257     IErMin=10 ErrMin= 3.78D-08
 ErrMax= 3.78D-08  0.00D+00 EMaxC= 1.00D-01 BMatC= 1.79D-13 BMatP= 1.67D-12
 IDIUse=1 WtCom= 1.00D+00 WtEn= 0.00D+00
 Coeff-Com: -0.220D-05 0.528D-04-0.270D-03-0.965D-03 0.353D-02 0.998D-02
 Coeff-Com:  0.510D-04-0.158D+00-0.210D-01 0.117D+01
 Coeff:     -0.220D-05 0.528D-04-0.270D-03-0.965D-03 0.353D-02 0.998D-02
 Coeff:      0.510D-04-0.158D+00-0.210D-01 0.117D+01
 Gap=     0.402 Goal=   None    Shift=    0.000
 RMSDP=8.42D-09 MaxDP=1.69D-07 DE=-4.32D-12 OVMax= 5.89D-07

 SCF Done:  E(RHF) =  -117.113449826     A.U. after   10 cycles
            NFock= 10  Conv=0.84D-08     -V/T= 2.0012
 KE= 1.169709210468D+02 PE=-4.134789455737D+02 EE= 1.086644409757D+02
 Leave Link  502 at Sat Feb 16 14:03:18 2019, MaxMem=   196608000 cpu:       220.3
 (Enter /cm/shared/c3ddb/gaussian/09.d01/g09/l508.exe)
 QCSCF skips out because SCF is already converged.
 Leave Link  508 at Sat Feb 16 14:03:19 2019, MaxMem=   196608000 cpu:         0.0
 (Enter /cm/shared/c3ddb/gaussian/09.d01/g09/l801.exe)
 ExpMin= 3.60D-02 ExpMax= 4.56D+03 ExpMxC= 6.82D+02 IAcc=3 IRadAn=         5 AccDes= 0.00D+00
 HarFok:  IExCor=  205 AccDes= 0.00D+00 IRadAn=         5 IDoV=-2 UseB2=F ITyADJ=14
 ICtDFT= 12500011 ScaDFX=  1.000000  1.000000  1.000000  1.000000
 Largest valence mixing into a core orbital is  1.24D-04
 Largest core mixing into a valence orbital is  3.55D-05
 Range of M.O.s used for correlation:     4   162
 NBasis=   162 NAE=    12 NBE=    12 NFC=     3 NFV=     0
 NROrb=    159 NOA=     9 NOB=     9 NVA=   150 NVB=   150

 **** Warning!!: The largest alpha MO coefficient is  0.56672796D+02

 Leave Link  801 at Sat Feb 16 14:03:19 2019, MaxMem=   196608000 cpu:         3.2
 (Enter /cm/shared/c3ddb/gaussian/09.d01/g09/l906.exe)
 FulOut=F Deriv=F AODrv=F NAtomX=     9
   MMem=           0  MDisk=           9 MDiskD=           9
  W3Min=      238950 MinDsk=      518885 NBas6D=         177
 NBas2D=       16086    NTT=       15753    LW2=     2000000
    MDV=   196426113 MDiskM=        5492 NBas2p=       14381
 Disk-based method using OVN memory for  9 occupieds at a time.
 Permanent disk used for amplitudes and <ij||ab> integrals=     4449600 words.
 Estimated scratch disk usage=    64997710 words.
 IMap=   1   2   3   4   5   6   7   8   9
 Actual    scratch disk usage=    49286478 words.
 JobTyp=1 Pass  1:  I=   1 to   9 NPSUse=  8 ParTrn=T ParDer=T DoDerP=F.
 (rs|ai) integrals will be sorted in core.
 Spin components of T(2) and E(2):
     alpha-alpha T2 =       0.1926004015D-01 E2=     -0.5482829922D-01
     alpha-beta  T2 =       0.1272066399D+00 E2=     -0.3897858281D+00
     beta-beta   T2 =       0.1926004015D-01 E2=     -0.5482829922D-01
 The integrals were generated   1 times.
 ANorm=    0.1079688251D+01
 E2 =    -0.4994424266D+00 EUMP2 =    -0.11761289225283D+03
 Leave Link  906 at Sat Feb 16 14:03:57 2019, MaxMem=   196608000 cpu:       259.0
 (Enter /cm/shared/c3ddb/gaussian/09.d01/g09/l904.exe)

 Complete Basis Set (CBS) Extrapolation:
 M. R. Nyden and G. A. Petersson, JCP 75, 1843 (1981)
 G. A. Petersson and M. A. Al-Laham, JCP 94, 6081 (1991)
 G. A. Petersson, T. Tensfeldt, and J. A. Montgomery, JCP 94, 6091 (1991)
 J. A. Montgomery, J. W. Ochterski, and G. A. Petersson, JCP 101, 5900 (1994)
 
 Available Memory in CBS =  196608000
 Minimum Number of PNO for Extrapolation =  10
 Absolute Overlaps: IRadAn =     99590
 LocTrn: ILocal=3 LocCor=F DoCore=F.
 LocMO: Using population method
 Initial Trace= 0.90000000D+01 Initial TraceA= 0.21950383D+01
 RMSG= 0.10901936D-08
 There are a total of      453120 grid points.
 ElSum from         orbitals=       12.0000011347
 E2(CBS)=      -0.547608 CBS-Int=       0.017624 OIii=       4.560378
 Leave Link  904 at Sat Feb 16 14:04:11 2019, MaxMem=   196608000 cpu:        88.2
 (Enter /cm/shared/c3ddb/gaussian/09.d01/g09/l601.exe)
 Copying SCF densities to generalized density rwf, IOpCl= 0 IROHF=0.

 **********************************************************************

            Population analysis using the SCF density.

 **********************************************************************

 Orbital symmetries:
       Occupied  (A') (A') (A') (A') (A') (A') (A') (A') (A") (A')
                 (A') (A")
       Virtual   (A') (A') (A') (A") (A') (A') (A") (A') (A") (A')
                 (A') (A") (A') (A') (A') (A') (A') (A") (A') (A')
                 (A") (A') (A') (A') (A') (A') (A') (A') (A") (A')
                 (A') (A") (A') (A") (A') (A') (A") (A') (A") (A')
                 (A') (A") (A') (A") (A') (A') (A') (A') (A') (A")
                 (A') (A") (A') (A") (A") (A') (A") (A') (A") (A')
                 (A') (A') (A") (A') (A') (A') (A") (A') (A") (A')
                 (A') (A") (A') (A') (A') (A') (A') (A') (A') (A")
                 (A') (A') (A') (A") (A') (A') (A") (A") (A") (A')
                 (A") (A') (A") (A") (A') (A") (A') (A') (A") (A')
                 (A') (A') (A") (A") (A') (A') (A') (A') (A") (A')
                 (A") (A') (A") (A") (A') (A') (A') (A') (A') (A")
                 (A') (A') (A") (A') (A") (A') (A") (A") (A') (A')
                 (A") (A') (A") (A') (A") (A') (A') (A") (A') (A')
                 (A') (A') (A') (A") (A') (A') (A') (A') (A') (A')
 The electronic state is 1-A'.
 Alpha  occ. eigenvalues --  -11.23326 -11.22119 -11.21675  -1.06439  -0.93313
 Alpha  occ. eigenvalues --   -0.75722  -0.63889  -0.58384  -0.56651  -0.52409
 Alpha  occ. eigenvalues --   -0.49013  -0.36018
 Alpha virt. eigenvalues --    0.04209   0.05926   0.06086   0.07415   0.07990
 Alpha virt. eigenvalues --    0.09373   0.11473   0.13960   0.15059   0.16457
 Alpha virt. eigenvalues --    0.17352   0.17807   0.18628   0.20340   0.20930
 Alpha virt. eigenvalues --    0.21654   0.22991   0.23105   0.24071   0.30259
 Alpha virt. eigenvalues --    0.30310   0.31231   0.33164   0.38697   0.40282
 Alpha virt. eigenvalues --    0.47363   0.51568   0.56506   0.57415   0.60035
 Alpha virt. eigenvalues --    0.62585   0.68030   0.68249   0.70745   0.71181
 Alpha virt. eigenvalues --    0.72565   0.73727   0.74712   0.78656   0.79905
 Alpha virt. eigenvalues --    0.82686   0.82697   0.86161   0.86763   0.88164
 Alpha virt. eigenvalues --    0.93051   0.94666   0.96343   1.00686   1.05109
 Alpha virt. eigenvalues --    1.10673   1.12566   1.13041   1.20316   1.21023
 Alpha virt. eigenvalues --    1.28687   1.30777   1.32822   1.36206   1.36406
 Alpha virt. eigenvalues --    1.41005   1.43753   1.45857   1.49671   1.55903
 Alpha virt. eigenvalues --    1.56643   1.62033   1.65805   1.66761   1.68660
 Alpha virt. eigenvalues --    1.71486   1.74788   1.76189   1.77766   1.81183
 Alpha virt. eigenvalues --    1.87270   1.96647   2.13457   2.69124   2.70237
 Alpha virt. eigenvalues --    2.81051   2.86096   2.92482   2.99427   3.00553
 Alpha virt. eigenvalues --    3.07622   3.10296   3.12390   3.17759   3.17955
 Alpha virt. eigenvalues --    3.19054   3.19452   3.27609   3.34993   3.35837
 Alpha virt. eigenvalues --    3.43256   3.44986   3.47409   3.47887   3.50469
 Alpha virt. eigenvalues --    3.52258   3.56344   3.57535   3.60791   3.63578
 Alpha virt. eigenvalues --    3.65614   3.74855   3.76373   3.76668   3.79619
 Alpha virt. eigenvalues --    3.85468   3.95459   3.99397   4.05012   4.05133
 Alpha virt. eigenvalues --    4.13963   4.14821   4.19370   4.25132   4.29673
 Alpha virt. eigenvalues --    4.30407   4.37400   4.41084   4.45506   4.50751
 Alpha virt. eigenvalues --    4.57075   4.59022   4.59303   4.62614   4.70378
 Alpha virt. eigenvalues --    4.71831   4.81483   4.85173   4.86130   4.92323
 Alpha virt. eigenvalues --    5.02730   5.07677   5.14343   5.19536   5.54619
 Alpha virt. eigenvalues --    5.60521   5.86867   5.95471   6.07392   6.07939
 Alpha virt. eigenvalues --    6.11027   6.46168  25.16435  25.50694  25.96281
          Condensed to atoms (all electrons):
               1          2          3          4          5          6
     1  C    4.652867   0.254925   0.048239   0.428288   0.432051   0.432051
     2  C    0.254925   4.677045   0.644996  -0.054658  -0.032795  -0.032795
     3  C    0.048239   0.644996   4.949907  -0.005630  -0.001282  -0.001282
     4  H    0.428288  -0.054658  -0.005630   0.614817  -0.028014  -0.028014
     5  H    0.432051  -0.032795  -0.001282  -0.028014   0.648388  -0.059190
     6  H    0.432051  -0.032795  -0.001282  -0.028014  -0.059190   0.648388
     7  H   -0.045530   0.416569  -0.050349   0.003419  -0.002812  -0.002812
     8  H    0.004221  -0.009341   0.406089   0.000516  -0.000569  -0.000569
     9  H   -0.003562  -0.042423   0.418218   0.001086  -0.000047  -0.000047
               7          8          9
     1  C   -0.045530   0.004221  -0.003562
     2  C    0.416569  -0.009341  -0.042423
     3  C   -0.050349   0.406089   0.418218
     4  H    0.003419   0.000516   0.001086
     5  H   -0.002812  -0.000569  -0.000047
     6  H   -0.002812  -0.000569  -0.000047
     7  H    0.567911  -0.005773   0.004154
     8  H   -0.005773   0.558002  -0.028171
     9  H    0.004154  -0.028171   0.564363
 Mulliken charges:
               1
     1  C   -0.203550
     2  C    0.178478
     3  C   -0.408906
     4  H    0.068189
     5  H    0.044270
     6  H    0.044270
     7  H    0.115224
     8  H    0.075595
     9  H    0.086429
 Sum of Mulliken charges =   0.00000
 Mulliken charges with hydrogens summed into heavy atoms:
               1
     1  C   -0.046821
     2  C    0.293702
     3  C   -0.246881
 Electronic spatial extent (au):  <R**2>=            197.9117
 Charge=              0.0000 electrons
 Dipole moment (field-independent basis, Debye):
    X=              0.4096    Y=             -0.0519    Z=              0.0000  Tot=              0.4129
 Quadrupole moment (field-independent basis, Debye-Ang):
   XX=            -19.2294   YY=            -19.2088   ZZ=            -22.3613
   XY=              0.2871   XZ=              0.0000   YZ=              0.0000
 Traceless Quadrupole moment (field-independent basis, Debye-Ang):
   XX=              1.0371   YY=              1.0577   ZZ=             -2.0948
   XY=              0.2871   XZ=              0.0000   YZ=              0.0000
 Octapole moment (field-independent basis, Debye-Ang**2):
  XXX=             -1.2847  YYY=              0.2484  ZZZ=              0.0000  XYY=             -0.8263
  XXY=              0.6950  XXZ=              0.0000  XZZ=              3.0420  YZZ=             -0.7147
  YYZ=              0.0000  XYZ=              0.0000
 Hexadecapole moment (field-independent basis, Debye-Ang**3):
 XXXX=           -174.8556 YYYY=            -62.5219 ZZZZ=            -34.0490 XXXY=             16.4635
 XXXZ=              0.0000 YYYX=             19.2954 YYYZ=              0.0000 ZZZX=              0.0000
 ZZZY=              0.0000 XXYY=            -39.3711 XXZZ=            -35.8550 YYZZ=            -18.2012
 XXYZ=              0.0000 YYXZ=              0.0000 ZZXY=              6.6839
 N-N= 7.073013372496D+01 E-N=-4.134789450041D+02  KE= 1.169709210468D+02
 Symmetry A'   KE= 1.131118362085D+02
 Symmetry A"   KE= 3.859084838323D+00
 Leave Link  601 at Sat Feb 16 14:04:13 2019, MaxMem=   196608000 cpu:        10.7
 (Enter /cm/shared/c3ddb/gaussian/09.d01/g09/l9999.exe)
 1\1\GINC-NODE026\SP\RMP2-FC\CBSB3\C3H6\DUMINDA\16-Feb-2019\0\\#P Geom=
 AllCheck Guess=TCheck SCRF=Check MP2/CBSB3 CBSExtrap=(NMin=10,MinPop)\
 \name\\0,1\C,0,-1.1028965492,0.1208287653,-0.2597828784\C,0,0.16168454
 01,-0.2500838656,0.4575207775\C,0,1.3930467868,0.0121856094,0.03065302
 25\H,0,-0.8949319445,0.6439191381,-1.1961196039\H,0,-1.7321485455,0.76
 80652112,0.3612557538\H,0,-1.6999744215,-0.7685736288,-0.4900511351\H,
 0,0.0356310387,-0.776233695,1.4024756615\H,0,2.2674195309,-0.284339804
 2,0.598937681\H,0,1.5721693797,0.5342319858,-0.9048893021\\Version=AS6
 4L-G09RevD.01\State=1-A'\HF=-117.1134498\MP2=-117.6128923\E2(CBS)=-0.5
 476082\CBS-Int=-0.5299845\OIii=4.5603779\RMSD=8.416e-09\PG=CS [SG(C3H4
 ),X(H2)]\\@


  ON THE CHOICE OF THE CORRECT LANGUAGE -
 I SPEAK SPANISH TO GOD, ITALIAN TO WOMEN,
 FRENCH TO MEN, AND GERMAN TO MY HORSE.
          -- CHARLES V
 Diagonal vibrational polarizability:
        0.0000000       0.0000000       0.0000000

 Complete Basis Set (CBS) Extrapolation:
 M. R. Nyden and G. A. Petersson, JCP 75, 1843 (1981)
 G. A. Petersson and M. A. Al-Laham, JCP 94, 6081 (1991)
 G. A. Petersson, T. Tensfeldt, and J. A. Montgomery, JCP 94, 6091 (1991)
 J. A. Montgomery, J. W. Ochterski, and G. A. Petersson, JCP 101, 5900 (1994)

 Temperature=               298.150000 Pressure=                       1.000000
 E(ZPE)=                      0.078537 E(Thermal)=                     0.082645
 E(SCF)=                   -117.113450 DE(MP2)=                       -0.499442
 DE(CBS)=                    -0.048166 DE(MP34)=                      -0.039658
 DE(CCSD)=                   -0.015252 DE(Int)=                        0.017624
 DE(Empirical)=              -0.026405
 CBS-QB3 (0 K)=            -117.646211 CBS-QB3 Energy=              -117.642103
 CBS-QB3 Enthalpy=         -117.641159 CBS-QB3 Free Energy=         -117.671231
 1\1\GINC-NODE026\Mixed\CBS-QB3\CBS-QB3\C3H6\DUMINDA\16-Feb-2019\0\\#P 
 opt=(noeigentest, calcfc) cbs-qb3 scf=xqc\\name\\0,1\C,0,-1.1028965492
 ,0.1208287653,-0.2597828784\C,0,0.1616845401,-0.2500838656,0.457520777
 5\C,0,1.3930467868,0.0121856094,0.0306530225\H,0,-0.8949319445,0.64391
 91381,-1.1961196039\H,0,-1.7321485455,0.7680652112,0.3612557538\H,0,-1
 .6999744215,-0.7685736288,-0.4900511351\H,0,0.0356310387,-0.776233695,
 1.4024756615\H,0,2.2674195309,-0.2843398042,0.598937681\H,0,1.57216937
 97,0.5342319858,-0.9048893021\\Version=AS64L-G09RevD.01\State=1-A'\HF/
 CbsB3=-117.1134498\E2(CBS)/CbsB3=-0.5476082\CBS-Int/CbsB3=0.0176236\OI
 ii/CbsB3=4.5603779\MP2/CbsB4=-117.5125496\MP4(SDQ)/CbsB4=-117.5522074\
 MP4(SDQ)/6-31+G(d')=-117.5026084\QCISD(T)/6-31+G(d')=-117.5178599\CBSQ
 B3=-117.6462108\FreqCoord=-2.0841724308,0.2283332754,-0.4909184943,0.3
 055395008,-0.4725900163,0.8645889695,2.6324769173,0.0230274645,0.05792
 58177,-1.6911762826,1.2168308227,-2.2603384736,-3.2732863724,1.4514329
 014,0.6826744386,-3.2124860896,-1.4523936714,-0.9260624364,0.067332904
 9,-1.4668690986,2.6502949083,4.2848019418,-0.5373243586,1.1318281878,2
 .9709695621,1.0095521446,-1.7099929616\PG=CS [SG(C3H4),X(H2)]\NImag=0\
 \0.50054237,0.01767731,0.53166596,-0.03279857,-0.01298490,0.54630074,-
 0.17491485,0.03002109,-0.05807068,0.78166381,0.02672056,-0.08553261,0.
 02505504,0.06916756,0.26660695,-0.05211310,0.02517978,-0.11963139,-0.1
 0097067,-0.20816330,0.52176104,-0.03238634,-0.00435156,0.00633849,-0.4
 9042314,-0.08407811,0.13513830,0.82131630,0.00778112,0.00853611,-0.001
 15738,-0.08380945,-0.08287648,0.05523888,0.04571946,0.23645416,-0.0155
 6142,-0.00161592,0.01006067,0.13465335,0.05522873,-0.14511975,-0.05545
 269,-0.23556248,0.52809668,-0.05889585,-0.02637990,0.04718257,0.006230
 19,0.01458996,-0.02606733,0.00191326,0.00051894,-0.00084601,0.06305953
 ,-0.02502273,-0.10703216,0.10667316,-0.00158525,-0.00500002,0.00740816
 ,-0.00073138,0.00005914,-0.00101241,0.02694749,0.11184140,0.04473283,0
 .10662186,-0.23817627,0.00312950,0.00801948,-0.01521984,0.00141085,-0.
 00096516,0.00130904,-0.04796596,-0.11928270,0.25869050,-0.12363642,0.0
 8649011,0.08446073,-0.02094296,0.01542621,0.01668307,-0.00113852,0.001
 75070,-0.00340025,-0.00407167,0.00326942,0.00329058,0.13930337,0.08640
 312,-0.13414333,-0.08562632,0.00371363,-0.00324898,-0.00370225,-0.0000
 6830,-0.00035692,0.00098131,-0.00983681,0.01032421,0.00876475,-0.09554
 254,0.14404450,0.08233688,-0.08451144,-0.13206772,-0.00925943,0.011060
 17,0.01209437,-0.00151811,0.00007457,-0.00081625,0.01421858,-0.0169368
 6,-0.01492856,-0.08979228,0.09561340,0.14021318,-0.11525446,-0.1137660
 9,-0.02838191,-0.02016592,-0.02309909,-0.00462068,-0.00117038,0.001906
 56,-0.00328842,-0.00396469,-0.00467966,-0.00111512,0.01039946,0.015174
 31,0.00352831,0.13011604,-0.11193973,-0.21649800,-0.04052939,0.0048388
 4,0.01053127,0.00204573,0.00129243,-0.00010858,-0.00009799,-0.00653279
 ,-0.01186255,-0.00343796,-0.01008426,-0.01714536,-0.00393729,0.1228962
 6,0.23526911,-0.02939769,-0.04171000,-0.05809501,-0.00796552,-0.013329
 91,-0.00246292,-0.00077867,0.00090071,-0.00103272,0.01495905,0.0228290
 3,0.00715121,-0.01020661,-0.01628190,-0.00467745,0.03330344,0.04684280
 ,0.05817590,0.00441009,0.01298148,-0.02335887,-0.05946168,-0.01333539,
 0.02338981,-0.00208022,-0.01591152,0.02839443,-0.00447815,0.00136340,-
 0.00270039,0.00079780,0.00008853,0.00092649,0.00079294,-0.00080898,0.0
 0041559,0.06354860,-0.00148897,-0.00121874,0.00661006,-0.01541648,-0.1
 0673164,0.11726786,-0.00023206,0.00212678,0.00798706,0.00132662,0.0014
 2732,0.00082431,-0.00038836,0.00020195,-0.00035061,0.00073955,0.000293
 04,0.00035282,0.01665498,0.10040172,0.00276080,0.00715695,-0.01033976,
 0.02714625,0.11734651,-0.25223038,0.00009247,0.00739447,-0.00678727,-0
 .00263400,0.00082570,0.00026624,-0.00061757,0.00038517,0.00031091,0.00
 002529,-0.00042345,0.00022468,-0.02864925,-0.13340458,0.26586328,-0.00
 161717,-0.00192077,0.00289233,-0.02045811,0.00949242,-0.01802763,-0.23
 296482,0.06087835,-0.11743301,0.00032625,-0.00001431,0.00004561,-0.000
 79776,0.00005311,-0.00026412,-0.00088795,0.00019529,-0.00022657,0.0009
 9670,0.00002096,0.00029882,0.24948153,-0.00107381,0.01022346,0.0060358
 0,-0.00668896,0.00473595,-0.00305628,0.06339118,-0.06071250,0.05184513
 ,-0.00014105,-0.00003894,-0.00029066,-0.00215835,0.00027366,-0.0010146
 3,0.00202446,-0.00055471,0.00049469,0.00023825,-0.00572229,-0.00394095
 ,-0.06647983,0.05317129,0.00136354,0.00600379,0.00280430,0.01118033,-0
 .00244473,0.00801817,-0.12196875,0.05175016,-0.13133779,0.00027438,-0.
 00028587,0.00032937,-0.00105741,-0.00009765,-0.00028245,0.00125677,-0.
 00040785,0.00063612,-0.00009341,-0.00394916,-0.00078574,0.12854363,-0.
 05628501,0.12983559,0.00175263,-0.00075167,0.00173592,-0.00152734,-0.0
 1488411,0.02658822,-0.06306614,-0.01883417,0.03293403,-0.00011886,0.00
 045301,-0.00082790,0.00008670,0.00001496,-0.00017632,0.00013496,0.0001
 4293,-0.00010302,-0.00452607,-0.00121624,0.00157719,0.00592133,0.01088
 811,-0.01949908,0.06134279,0.00094313,-0.00600069,-0.00407606,-0.00024
 099,0.00151556,0.00778142,-0.02094166,-0.10312173,0.12224658,-0.000492
 46,0.00028161,-0.00025394,0.00123707,0.00005027,0.00000270,-0.00119631
 ,0.00007578,-0.00009823,-0.00127077,0.00922185,0.00466018,-0.00222522,
 -0.00137593,0.00571632,0.02418720,0.09935328,-0.00132326,-0.00414012,-
 0.00085556,0.00015687,0.00722800,-0.00720931,0.03673811,0.12232623,-0.
 25437260,0.00087871,-0.00021820,0.00057831,0.00063975,-0.00003651,0.00
 015397,-0.00070768,-0.00005460,0.00008019,0.00167561,0.00466224,0.0034
 7805,0.00417093,0.00621192,-0.00921757,-0.04222904,-0.13597897,0.26736
 452\\0.00000231,0.00000122,-0.00000212,-0.00004451,-0.00000822,0.00001
 315,0.00004026,0.00000843,-0.00001369,-0.00000154,-0.00000414,0.000007
 42,0.00000387,-0.00000516,-0.00000369,0.00000364,0.00000598,0.00000249
 ,0.00000249,0.00000325,-0.00000577,-0.00000652,0.00000180,-0.00000350,
 0.,-0.00000316,0.00000571\\\@
 Job cpu time:       0 days  0 hours 10 minutes 14.8 seconds.
 File lengths (MBytes):  RWF=    419 Int=      0 D2E=      0 Chk=      3 Scr=      1
 Normal termination of Gaussian 09 at Sat Feb 16 14:04:14 2019.
