 Entering Gaussian System, Link 0=g09
 Initial command:
 /cm/shared/c3ddb/gaussian/09.d01/g09/l1.exe "/scratch/users/duminda/g09/a1696-7322595/Gau-47542.inp" -scrdir="/scratch/users/duminda/g09/a1696-7322595/"
 Entering Link 1 = /cm/shared/c3ddb/gaussian/09.d01/g09/l1.exe PID=     47543.
  
 Copyright (c) 1988,1990,1992,1993,1995,1998,2003,2009,2013,
            Gaussian, Inc.  All Rights Reserved.
  
 This is part of the Gaussian(R) 09 program.  It is based on
 the Gaussian(R) 03 system (copyright 2003, Gaussian, Inc.),
 the Gaussian(R) 98 system (copyright 1998, Gaussian, Inc.),
 the Gaussian(R) 94 system (copyright 1995, Gaussian, Inc.),
 the Gaussian 92(TM) system (copyright 1992, Gaussian, Inc.),
 the Gaussian 90(TM) system (copyright 1990, Gaussian, Inc.),
 the Gaussian 88(TM) system (copyright 1988, Gaussian, Inc.),
 the Gaussian 86(TM) system (copyright 1986, Carnegie Mellon
 University), and the Gaussian 82(TM) system (copyright 1983,
 Carnegie Mellon University). Gaussian is a federally registered
 trademark of Gaussian, Inc.
  
 This software contains proprietary and confidential information,
 including trade secrets, belonging to Gaussian, Inc.
  
 This software is provided under written license and may be
 used, copied, transmitted, or stored only in accord with that
 written license.
  
 The following legend is applicable only to US Government
 contracts under FAR:
  
                    RESTRICTED RIGHTS LEGEND
  
 Use, reproduction and disclosure by the US Government is
 subject to restrictions as set forth in subparagraphs (a)
 and (c) of the Commercial Computer Software - Restricted
 Rights clause in FAR 52.227-19.
  
 Gaussian, Inc.
 340 Quinnipiac St., Bldg. 40, Wallingford CT 06492
  
  
 ---------------------------------------------------------------
 Warning -- This program may not be used in any manner that
 competes with the business of Gaussian, Inc. or will provide
 assistance to any competitor of Gaussian, Inc.  The licensee
 of this program is prohibited from giving any competitor of
 Gaussian, Inc. access to this program.  By using this program,
 the user acknowledges that Gaussian, Inc. is engaged in the
 business of creating and licensing software in the field of
 computational chemistry and represents and warrants to the
 licensee that it is not a competitor of Gaussian, Inc. and that
 it will not use this program in any manner prohibited above.
 ---------------------------------------------------------------
  

 Cite this work as:
 Gaussian 09, Revision D.01,
 M. J. Frisch, G. W. Trucks, H. B. Schlegel, G. E. Scuseria, 
 M. A. Robb, J. R. Cheeseman, G. Scalmani, V. Barone, B. Mennucci, 
 G. A. Petersson, H. Nakatsuji, M. Caricato, X. Li, H. P. Hratchian, 
 A. F. Izmaylov, J. Bloino, G. Zheng, J. L. Sonnenberg, M. Hada, 
 M. Ehara, K. Toyota, R. Fukuda, J. Hasegawa, M. Ishida, T. Nakajima, 
 Y. Honda, O. Kitao, H. Nakai, T. Vreven, J. A. Montgomery, Jr., 
 J. E. Peralta, F. Ogliaro, M. Bearpark, J. J. Heyd, E. Brothers, 
 K. N. Kudin, V. N. Staroverov, T. Keith, R. Kobayashi, J. Normand, 
 K. Raghavachari, A. Rendell, J. C. Burant, S. S. Iyengar, J. Tomasi, 
 M. Cossi, N. Rega, J. M. Millam, M. Klene, J. E. Knox, J. B. Cross, 
 V. Bakken, C. Adamo, J. Jaramillo, R. Gomperts, R. E. Stratmann, 
 O. Yazyev, A. J. Austin, R. Cammi, C. Pomelli, J. W. Ochterski, 
 R. L. Martin, K. Morokuma, V. G. Zakrzewski, G. A. Voth, 
 P. Salvador, J. J. Dannenberg, S. Dapprich, A. D. Daniels, 
 O. Farkas, J. B. Foresman, J. V. Ortiz, J. Cioslowski, 
 and D. J. Fox, Gaussian, Inc., Wallingford CT, 2013.
 
 ******************************************
 Gaussian 09:  AS64L-G09RevD.01 24-Apr-2013
                16-Feb-2019 
 ******************************************
 %chk=check.chk
 %mem=1500mb
 %nproc=8
 Will use up to    8 processors via shared memory.
 ----------------------------------------
 #P ub3lyp/cbsb7 freq iop(7/33=1) scf=xqc
 ----------------------------------------
 1/10=4,30=1,38=1/1,3;
 2/12=2,17=6,18=5,40=1/2;
 3/5=4,6=6,7=700,11=2,16=1,25=1,30=1,71=2,74=-5,116=2,140=1/1,2,3;
 4//1;
 5/5=2,8=3,13=1,38=5,98=1/2,8;
 8/6=4,10=90,11=11/1;
 11/6=1,8=1,9=11,15=111,16=1/1,2,10;
 10/6=1/2;
 6/7=2,8=2,9=2,10=2,18=1,28=1/1;
 7/8=1,10=1,25=1,33=1/1,2,3,16;
 1/10=4,30=1/3;
 99//99;
 Leave Link    1 at Sat Feb 16 14:12:37 2019, MaxMem=   196608000 cpu:         0.8
 (Enter /cm/shared/c3ddb/gaussian/09.d01/g09/l101.exe)
 ----
 name
 ----
 Symbolic Z-matrix:
 Charge =  0 Multiplicity = 2
 O                     0.98636  -0.15408   0.26054 
 C                     2.81542   1.26704   0.57846 
 C                     2.16411   0.12608   0.02794 
 H                     3.85231   1.48728   0.35548 
 H                     2.25689   1.92471   1.23327 
 H                     2.7729   -0.51769  -0.63546 
 
 NAtoms=      6 NQM=        6 NQMF=       0 NMMI=      0 NMMIF=      0
                NMic=       0 NMicF=      0.
                    Isotopes and Nuclear Properties:
 (Nuclear quadrupole moments (NQMom) in fm**2, nuclear magnetic moments (NMagM)
  in nuclear magnetons)

  Atom         1           2           3           4           5           6
 IAtWgt=          16          12          12           1           1           1
 AtmWgt=  15.9949146  12.0000000  12.0000000   1.0078250   1.0078250   1.0078250
 NucSpn=           0           0           0           1           1           1
 AtZEff=   0.0000000   0.0000000   0.0000000   0.0000000   0.0000000   0.0000000
 NQMom=    0.0000000   0.0000000   0.0000000   0.0000000   0.0000000   0.0000000
 NMagM=    0.0000000   0.0000000   0.0000000   2.7928460   2.7928460   2.7928460
 AtZNuc=   8.0000000   6.0000000   6.0000000   1.0000000   1.0000000   1.0000000
 Leave Link  101 at Sat Feb 16 14:12:37 2019, MaxMem=   196608000 cpu:         0.6
 (Enter /cm/shared/c3ddb/gaussian/09.d01/g09/l103.exe)

 GradGradGradGradGradGradGradGradGradGradGradGradGradGradGradGradGradGrad
 Berny optimization.
 Initialization pass.
 Trust Radius=3.00D-01 FncErr=1.00D-07 GrdErr=1.00D-07
 Number of steps in this run=      2 maximum allowed number of steps=      2.
 GradGradGradGradGradGradGradGradGradGradGradGradGradGradGradGradGradGrad

 Leave Link  103 at Sat Feb 16 14:12:37 2019, MaxMem=   196608000 cpu:         0.1
 (Enter /cm/shared/c3ddb/gaussian/09.d01/g09/l202.exe)
                          Input orientation:                          
 ---------------------------------------------------------------------
 Center     Atomic      Atomic             Coordinates (Angstroms)
 Number     Number       Type             X           Y           Z
 ---------------------------------------------------------------------
      1          8           0        0.986356   -0.154077    0.260540
      2          6           0        2.815422    1.267042    0.578457
      3          6           0        2.164114    0.126084    0.027935
      4          1           0        3.852308    1.487275    0.355478
      5          1           0        2.256889    1.924714    1.233270
      6          1           0        2.772901   -0.517689   -0.635462
 ---------------------------------------------------------------------
                    Distance matrix (angstroms):
                    1          2          3          4          5
     1  O    0.000000
     2  C    2.337976   0.000000
     3  C    1.232765   1.424451   0.000000
     4  H    3.304048   1.083215   2.193200   0.000000
     5  H    2.623324   1.083177   2.167143   1.872761   0.000000
     6  H    2.031447   2.158859   1.106870   2.483337   3.118294
                    6
     6  H    0.000000
 Stoichiometry    C2H3O(2)
 Framework group  C1[X(C2H3O)]
 Deg. of freedom    12
 Full point group                 C1      NOp   1
 Largest Abelian subgroup         C1      NOp   1
 Largest concise Abelian subgroup C1      NOp   1
                         Standard orientation:                         
 ---------------------------------------------------------------------
 Center     Atomic      Atomic             Coordinates (Angstroms)
 Number     Number       Type             X           Y           Z
 ---------------------------------------------------------------------
      1          8           0       -1.168069   -0.264352    0.000000
      2          6           0        1.168069   -0.171646    0.000000
      3          6           0       -0.133797    0.406461    0.000000
      4          1           0        2.059075    0.444359    0.000000
      5          1           0        1.262774   -1.250674   -0.000001
      6          1           0       -0.182931    1.512240    0.000000
 ---------------------------------------------------------------------
 Rotational constants (GHZ):     67.3710021     11.4543750      9.7899020
 Leave Link  202 at Sat Feb 16 14:12:37 2019, MaxMem=   196608000 cpu:         0.3
 (Enter /cm/shared/c3ddb/gaussian/09.d01/g09/l301.exe)
 Standard basis: 6-311G(2d,d,p) (5D, 7F)
 Ernie: Thresh=  0.10000D-02 Tol=  0.10000D-05 Strict=F.
 There are    75 symmetry adapted cartesian basis functions of A   symmetry.
 There are    72 symmetry adapted basis functions of A   symmetry.
    72 basis functions,   120 primitive gaussians,    75 cartesian basis functions
    12 alpha electrons       11 beta electrons
       nuclear repulsion energy        63.6013904822 Hartrees.
 IExCor=  402 DFT=T Ex+Corr=B3LYP ExCW=0 ScaHFX=  0.200000
 ScaDFX=  0.800000  0.720000  1.000000  0.810000 ScalE2=  1.000000  1.000000
 IRadAn=      0 IRanWt=     -1 IRanGd=            0 ICorTp=0 IEmpDi=  4
 NAtoms=    6 NActive=    6 NUniq=    6 SFac= 1.00D+00 NAtFMM=   60 NAOKFM=F Big=F
 Integral buffers will be    131072 words long.
 Raffenetti 2 integral format.
 Two-electron integral symmetry is turned on.
 Leave Link  301 at Sat Feb 16 14:12:37 2019, MaxMem=   196608000 cpu:         0.4
 (Enter /cm/shared/c3ddb/gaussian/09.d01/g09/l302.exe)
 NPDir=0 NMtPBC=     1 NCelOv=     1 NCel=       1 NClECP=     1 NCelD=      1
         NCelK=      1 NCelE2=     1 NClLst=     1 CellRange=     0.0.
 One-electron integrals computed using PRISM.
 NBasis=    72 RedAO= T EigKep=  4.23D-03  NBF=    72
 NBsUse=    72 1.00D-06 EigRej= -1.00D+00 NBFU=    72
 Precomputing XC quadrature grid using
 IXCGrd= 4 IRadAn=           0 IRanWt=          -1 IRanGd=           0 AccXCQ= 0.00D+00.
 Generated NRdTot=       0 NPtTot=           0 NUsed=           0 NTot=          32
 NSgBfM=    75    75    75    75    75 MxSgAt=     6 MxSgA2=     6.
 Leave Link  302 at Sat Feb 16 14:12:38 2019, MaxMem=   196608000 cpu:         5.1
 (Enter /cm/shared/c3ddb/gaussian/09.d01/g09/l303.exe)
 DipDrv:  MaxL=1.
 Leave Link  303 at Sat Feb 16 14:12:38 2019, MaxMem=   196608000 cpu:         1.1
 (Enter /cm/shared/c3ddb/gaussian/09.d01/g09/l401.exe)
 ExpMin= 1.03D-01 ExpMax= 8.59D+03 ExpMxC= 1.30D+03 IAcc=1 IRadAn=         1 AccDes= 0.00D+00
 Harris functional with IExCor=  402 and IRadAn=       1 diagonalized for initial guess.
 HarFok:  IExCor=  402 AccDes= 0.00D+00 IRadAn=         1 IDoV= 1 UseB2=F ITyADJ=14
 ICtDFT=  3500011 ScaDFX=  1.000000  1.000000  1.000000  1.000000
 FoFCou: FMM=F IPFlag=           0 FMFlag=      100000 FMFlg1=           0
         NFxFlg=           0 DoJE=T BraDBF=F KetDBF=T FulRan=T
         wScrn=  0.000000 ICntrl=     500 IOpCl=  0 I1Cent=   200000004 NGrid=           0
         NMat0=    1 NMatS0=      1 NMatT0=    0 NMatD0=    1 NMtDS0=    0 NMtDT0=    0
 Petite list used in FoFCou.
 Harris En= -153.218275142262    
 JPrj=0 DoOrth=F DoCkMO=F.
 Initial guess <Sx>= 0.0000 <Sy>= 0.0000 <Sz>= 0.5000 <S**2>= 0.7500 S= 0.5000
 Leave Link  401 at Sat Feb 16 14:12:39 2019, MaxMem=   196608000 cpu:         5.7
 (Enter /cm/shared/c3ddb/gaussian/09.d01/g09/l502.exe)
 UHF open shell SCF:
 Using DIIS extrapolation, IDIIS=  1040.
 Integral symmetry usage will be decided dynamically.
 Keep R1 and R2 ints in memory in canonical form, NReq=7827000.
 IVT=       23978 IEndB=       23978 NGot=   196608000 MDV=   189675011
 LenX=   189675011 LenY=   189668945
 Requested convergence on RMS density matrix=1.00D-08 within  64 cycles.
 Requested convergence on MAX density matrix=1.00D-06.
 Requested convergence on             energy=1.00D-06.
 No special actions if energy rises.
 FoFCou: FMM=F IPFlag=           0 FMFlag=           0 FMFlg1=           0
         NFxFlg=           0 DoJE=F BraDBF=F KetDBF=F FulRan=T
         wScrn=  0.000000 ICntrl=     600 IOpCl=  0 I1Cent=           0 NGrid=           0
         NMat0=    1 NMatS0=   2628 NMatT0=    0 NMatD0=    1 NMtDS0=    0 NMtDT0=    0
 Symmetry not used in FoFCou.
 Integral accuracy reduced to 1.0D-05 until final iterations.

 Cycle   1  Pass 0  IDiag  1:
 E= -153.133762399284    
 DIIS: error= 4.06D-02 at cycle   1 NSaved=   1.
 NSaved= 1 IEnMin= 1 EnMin= -153.133762399284     IErMin= 1 ErrMin= 4.06D-02
 ErrMax= 4.06D-02  0.00D+00 EMaxC= 1.00D-01 BMatC= 4.19D-01 BMatP= 4.19D-01
 IDIUse=3 WtCom= 5.94D-01 WtEn= 4.06D-01
 Coeff-Com:  0.100D+01
 Coeff-En:   0.100D+01
 Coeff:      0.100D+01
 Gap=     0.256 Goal=   None    Shift=    0.000
 Gap=     0.047 Goal=   None    Shift=    0.000
 GapD=    0.047 DampG=0.250 DampE=0.500 DampFc=0.2500 IDamp=-1.
 Damping current iteration by 2.50D-01
 RMSDP=1.18D-02 MaxDP=3.13D-01              OVMax= 3.40D-01

 Cycle   2  Pass 0  IDiag  1:
 E= -153.160686239693     Delta-E=       -0.026923840410 Rises=F Damp=T
 DIIS: error= 1.49D-02 at cycle   2 NSaved=   2.
 NSaved= 2 IEnMin= 2 EnMin= -153.160686239693     IErMin= 2 ErrMin= 1.49D-02
 ErrMax= 1.49D-02  0.00D+00 EMaxC= 1.00D-01 BMatC= 7.70D-02 BMatP= 4.19D-01
 IDIUse=3 WtCom= 8.51D-01 WtEn= 1.49D-01
 Coeff-Com: -0.425D+00 0.143D+01
 Coeff-En:   0.000D+00 0.100D+01
 Coeff:     -0.362D+00 0.136D+01
 Gap=     0.324 Goal=   None    Shift=    0.000
 Gap=     0.136 Goal=   None    Shift=    0.000
 RMSDP=1.99D-03 MaxDP=5.35D-02 DE=-2.69D-02 OVMax= 2.77D-01

 Cycle   3  Pass 0  IDiag  1:
 E= -153.204143133361     Delta-E=       -0.043456893668 Rises=F Damp=F
 DIIS: error= 1.69D-02 at cycle   3 NSaved=   3.
 NSaved= 3 IEnMin= 3 EnMin= -153.204143133361     IErMin= 2 ErrMin= 1.49D-02
 ErrMax= 1.69D-02  0.00D+00 EMaxC= 1.00D-01 BMatC= 5.04D-02 BMatP= 7.70D-02
 IDIUse=3 WtCom= 8.31D-01 WtEn= 1.69D-01
 Coeff-Com: -0.333D+00 0.818D+00 0.515D+00
 Coeff-En:   0.000D+00 0.000D+00 0.100D+01
 Coeff:     -0.277D+00 0.680D+00 0.597D+00
 Gap=     0.271 Goal=   None    Shift=    0.000
 Gap=     0.109 Goal=   None    Shift=    0.000
 RMSDP=1.41D-03 MaxDP=2.74D-02 DE=-4.35D-02 OVMax= 9.01D-02

 Cycle   4  Pass 0  IDiag  1:
 E= -153.214039425229     Delta-E=       -0.009896291868 Rises=F Damp=F
 DIIS: error= 8.30D-03 at cycle   4 NSaved=   4.
 NSaved= 4 IEnMin= 4 EnMin= -153.214039425229     IErMin= 4 ErrMin= 8.30D-03
 ErrMax= 8.30D-03  0.00D+00 EMaxC= 1.00D-01 BMatC= 1.20D-02 BMatP= 5.04D-02
 IDIUse=3 WtCom= 9.17D-01 WtEn= 8.30D-02
 Coeff-Com:  0.116D-01 0.607D-03 0.315D+00 0.673D+00
 Coeff-En:   0.000D+00 0.000D+00 0.197D+00 0.803D+00
 Coeff:      0.106D-01 0.557D-03 0.305D+00 0.684D+00
 Gap=     0.270 Goal=   None    Shift=    0.000
 Gap=     0.122 Goal=   None    Shift=    0.000
 RMSDP=5.20D-04 MaxDP=1.02D-02 DE=-9.90D-03 OVMax= 2.03D-02

 Cycle   5  Pass 0  IDiag  1:
 E= -153.216746585863     Delta-E=       -0.002707160634 Rises=F Damp=F
 DIIS: error= 1.53D-03 at cycle   5 NSaved=   5.
 NSaved= 5 IEnMin= 5 EnMin= -153.216746585863     IErMin= 5 ErrMin= 1.53D-03
 ErrMax= 1.53D-03  0.00D+00 EMaxC= 1.00D-01 BMatC= 1.07D-04 BMatP= 1.20D-02
 IDIUse=3 WtCom= 9.85D-01 WtEn= 1.53D-02
 Coeff-Com:  0.208D-01-0.452D-01 0.144D-01 0.874D-01 0.923D+00
 Coeff-En:   0.000D+00 0.000D+00 0.000D+00 0.000D+00 0.100D+01
 Coeff:      0.205D-01-0.445D-01 0.142D-01 0.860D-01 0.924D+00
 Gap=     0.271 Goal=   None    Shift=    0.000
 Gap=     0.122 Goal=   None    Shift=    0.000
 RMSDP=1.02D-04 MaxDP=2.05D-03 DE=-2.71D-03 OVMax= 7.88D-03

 Cycle   6  Pass 0  IDiag  1:
 E= -153.216822749020     Delta-E=       -0.000076163158 Rises=F Damp=F
 DIIS: error= 6.72D-04 at cycle   6 NSaved=   6.
 NSaved= 6 IEnMin= 6 EnMin= -153.216822749020     IErMin= 6 ErrMin= 6.72D-04
 ErrMax= 6.72D-04  0.00D+00 EMaxC= 1.00D-01 BMatC= 4.78D-05 BMatP= 1.07D-04
 IDIUse=3 WtCom= 9.93D-01 WtEn= 6.72D-03
 Coeff-Com:  0.576D-02-0.160D-01-0.517D-01-0.108D+00 0.316D+00 0.854D+00
 Coeff-En:   0.000D+00 0.000D+00 0.000D+00 0.000D+00 0.000D+00 0.100D+01
 Coeff:      0.573D-02-0.159D-01-0.514D-01-0.107D+00 0.313D+00 0.855D+00
 Gap=     0.272 Goal=   None    Shift=    0.000
 Gap=     0.123 Goal=   None    Shift=    0.000
 RMSDP=7.98D-05 MaxDP=1.46D-03 DE=-7.62D-05 OVMax= 5.02D-03

 Cycle   7  Pass 0  IDiag  1:
 E= -153.216850395243     Delta-E=       -0.000027646223 Rises=F Damp=F
 DIIS: error= 3.68D-04 at cycle   7 NSaved=   7.
 NSaved= 7 IEnMin= 7 EnMin= -153.216850395243     IErMin= 7 ErrMin= 3.68D-04
 ErrMax= 3.68D-04  0.00D+00 EMaxC= 1.00D-01 BMatC= 1.23D-05 BMatP= 4.78D-05
 IDIUse=3 WtCom= 9.96D-01 WtEn= 3.68D-03
 Coeff-Com: -0.361D-02 0.657D-02-0.237D-01-0.676D-01-0.146D+00 0.408D+00
 Coeff-Com:  0.827D+00
 Coeff-En:   0.000D+00 0.000D+00 0.000D+00 0.000D+00 0.000D+00 0.000D+00
 Coeff-En:   0.100D+01
 Coeff:     -0.359D-02 0.655D-02-0.236D-01-0.674D-01-0.146D+00 0.406D+00
 Coeff:      0.827D+00
 Gap=     0.273 Goal=   None    Shift=    0.000
 Gap=     0.123 Goal=   None    Shift=    0.000
 RMSDP=3.35D-05 MaxDP=6.75D-04 DE=-2.76D-05 OVMax= 2.99D-03

 Cycle   8  Pass 0  IDiag  1:
 E= -153.216857642356     Delta-E=       -0.000007247112 Rises=F Damp=F
 DIIS: error= 8.15D-05 at cycle   8 NSaved=   8.
 NSaved= 8 IEnMin= 8 EnMin= -153.216857642356     IErMin= 8 ErrMin= 8.15D-05
 ErrMax= 8.15D-05  0.00D+00 EMaxC= 1.00D-01 BMatC= 4.59D-07 BMatP= 1.23D-05
 IDIUse=1 WtCom= 1.00D+00 WtEn= 0.00D+00
 Coeff-Com: -0.712D-03 0.192D-02 0.325D-02 0.382D-02-0.475D-01-0.280D-01
 Coeff-Com:  0.119D-01 0.106D+01
 Coeff:     -0.712D-03 0.192D-02 0.325D-02 0.382D-02-0.475D-01-0.280D-01
 Coeff:      0.119D-01 0.106D+01
 Gap=     0.273 Goal=   None    Shift=    0.000
 Gap=     0.123 Goal=   None    Shift=    0.000
 RMSDP=1.20D-05 MaxDP=2.26D-04 DE=-7.25D-06 OVMax= 1.05D-03

 Cycle   9  Pass 0  IDiag  1:
 E= -153.216858263446     Delta-E=       -0.000000621091 Rises=F Damp=F
 DIIS: error= 3.59D-05 at cycle   9 NSaved=   9.
 NSaved= 9 IEnMin= 9 EnMin= -153.216858263446     IErMin= 9 ErrMin= 3.59D-05
 ErrMax= 3.59D-05  0.00D+00 EMaxC= 1.00D-01 BMatC= 8.17D-08 BMatP= 4.59D-07
 IDIUse=1 WtCom= 1.00D+00 WtEn= 0.00D+00
 Coeff-Com:  0.736D-03-0.118D-02 0.320D-02 0.829D-02 0.174D-01-0.478D-01
 Coeff-Com: -0.124D+00-0.173D-01 0.116D+01
 Coeff:      0.736D-03-0.118D-02 0.320D-02 0.829D-02 0.174D-01-0.478D-01
 Coeff:     -0.124D+00-0.173D-01 0.116D+01
 Gap=     0.273 Goal=   None    Shift=    0.000
 Gap=     0.123 Goal=   None    Shift=    0.000
 RMSDP=5.39D-06 MaxDP=1.02D-04 DE=-6.21D-07 OVMax= 4.38D-04

 Initial convergence to 1.0D-05 achieved.  Increase integral accuracy.
 Cycle  10  Pass 1  IDiag  1:
 E= -153.216864547457     Delta-E=       -0.000006284010 Rises=F Damp=F
 DIIS: error= 5.94D-06 at cycle   1 NSaved=   1.
 NSaved= 1 IEnMin= 1 EnMin= -153.216864547457     IErMin= 1 ErrMin= 5.94D-06
 ErrMax= 5.94D-06  0.00D+00 EMaxC= 1.00D-01 BMatC= 1.15D-08 BMatP= 1.15D-08
 IDIUse=1 WtCom= 1.00D+00 WtEn= 0.00D+00
 Coeff-Com:  0.100D+01
 Coeff:      0.100D+01
 Gap=     0.273 Goal=   None    Shift=    0.000
 Gap=     0.123 Goal=   None    Shift=    0.000
 RMSDP=5.39D-06 MaxDP=1.02D-04 DE=-6.28D-06 OVMax= 5.43D-05

 Cycle  11  Pass 1  IDiag  1:
 E= -153.216864552679     Delta-E=       -0.000000005222 Rises=F Damp=F
 DIIS: error= 5.73D-06 at cycle   2 NSaved=   2.
 NSaved= 2 IEnMin= 2 EnMin= -153.216864552679     IErMin= 2 ErrMin= 5.73D-06
 ErrMax= 5.73D-06  0.00D+00 EMaxC= 1.00D-01 BMatC= 2.30D-09 BMatP= 1.15D-08
 IDIUse=1 WtCom= 1.00D+00 WtEn= 0.00D+00
 Coeff-Com:  0.144D+00 0.856D+00
 Coeff:      0.144D+00 0.856D+00
 Gap=     0.273 Goal=   None    Shift=    0.000
 Gap=     0.123 Goal=   None    Shift=    0.000
 RMSDP=5.74D-07 MaxDP=1.03D-05 DE=-5.22D-09 OVMax= 5.13D-05

 Cycle  12  Pass 1  IDiag  1:
 E= -153.216864552340     Delta-E=        0.000000000339 Rises=F Damp=F
 DIIS: error= 7.00D-06 at cycle   3 NSaved=   3.
 NSaved= 3 IEnMin= 2 EnMin= -153.216864552679     IErMin= 2 ErrMin= 5.73D-06
 ErrMax= 7.00D-06  0.00D+00 EMaxC= 1.00D-01 BMatC= 7.24D-09 BMatP= 2.30D-09
 IDIUse=1 WtCom= 1.00D+00 WtEn= 0.00D+00
 Coeff-Com: -0.616D-01 0.689D+00 0.372D+00
 Coeff:     -0.616D-01 0.689D+00 0.372D+00
 Gap=     0.273 Goal=   None    Shift=    0.000
 Gap=     0.123 Goal=   None    Shift=    0.000
 RMSDP=3.94D-07 MaxDP=7.49D-06 DE= 3.39D-10 OVMax= 1.73D-05

 Cycle  13  Pass 1  IDiag  1:
 E= -153.216864553782     Delta-E=       -0.000000001442 Rises=F Damp=F
 DIIS: error= 1.09D-06 at cycle   4 NSaved=   4.
 NSaved= 4 IEnMin= 4 EnMin= -153.216864553782     IErMin= 4 ErrMin= 1.09D-06
 ErrMax= 1.09D-06  0.00D+00 EMaxC= 1.00D-01 BMatC= 1.11D-10 BMatP= 2.30D-09
 IDIUse=1 WtCom= 1.00D+00 WtEn= 0.00D+00
 Coeff-Com: -0.374D-01 0.940D-02-0.382D-01 0.107D+01
 Coeff:     -0.374D-01 0.940D-02-0.382D-01 0.107D+01
 Gap=     0.273 Goal=   None    Shift=    0.000
 Gap=     0.123 Goal=   None    Shift=    0.000
 RMSDP=1.41D-07 MaxDP=2.21D-06 DE=-1.44D-09 OVMax= 9.71D-06

 Cycle  14  Pass 1  IDiag  1:
 E= -153.216864553882     Delta-E=       -0.000000000100 Rises=F Damp=F
 DIIS: error= 6.41D-07 at cycle   5 NSaved=   5.
 NSaved= 5 IEnMin= 5 EnMin= -153.216864553882     IErMin= 5 ErrMin= 6.41D-07
 ErrMax= 6.41D-07  0.00D+00 EMaxC= 1.00D-01 BMatC= 2.45D-11 BMatP= 1.11D-10
 IDIUse=1 WtCom= 1.00D+00 WtEn= 0.00D+00
 Coeff-Com:  0.308D-02-0.131D+00-0.896D-01 0.249D+00 0.969D+00
 Coeff:      0.308D-02-0.131D+00-0.896D-01 0.249D+00 0.969D+00
 Gap=     0.273 Goal=   None    Shift=    0.000
 Gap=     0.123 Goal=   None    Shift=    0.000
 RMSDP=8.22D-08 MaxDP=1.47D-06 DE=-1.00D-10 OVMax= 5.98D-06

 Cycle  15  Pass 1  IDiag  1:
 E= -153.216864553905     Delta-E=       -0.000000000023 Rises=F Damp=F
 DIIS: error= 2.79D-07 at cycle   6 NSaved=   6.
 NSaved= 6 IEnMin= 6 EnMin= -153.216864553905     IErMin= 6 ErrMin= 2.79D-07
 ErrMax= 2.79D-07  0.00D+00 EMaxC= 1.00D-01 BMatC= 8.70D-12 BMatP= 2.45D-11
 IDIUse=1 WtCom= 1.00D+00 WtEn= 0.00D+00
 Coeff-Com:  0.597D-02-0.677D-01-0.377D-01-0.280D-01 0.489D+00 0.638D+00
 Coeff:      0.597D-02-0.677D-01-0.377D-01-0.280D-01 0.489D+00 0.638D+00
 Gap=     0.273 Goal=   None    Shift=    0.000
 Gap=     0.123 Goal=   None    Shift=    0.000
 RMSDP=2.35D-08 MaxDP=4.38D-07 DE=-2.27D-11 OVMax= 2.20D-06

 Cycle  16  Pass 1  IDiag  1:
 E= -153.216864553909     Delta-E=       -0.000000000004 Rises=F Damp=F
 DIIS: error= 9.11D-08 at cycle   7 NSaved=   7.
 NSaved= 7 IEnMin= 7 EnMin= -153.216864553909     IErMin= 7 ErrMin= 9.11D-08
 ErrMax= 9.11D-08  0.00D+00 EMaxC= 1.00D-01 BMatC= 8.17D-13 BMatP= 8.70D-12
 IDIUse=1 WtCom= 1.00D+00 WtEn= 0.00D+00
 Coeff-Com: -0.140D-03 0.238D-01 0.118D-01-0.478D-01-0.158D+00 0.624D-01
 Coeff-Com:  0.111D+01
 Coeff:     -0.140D-03 0.238D-01 0.118D-01-0.478D-01-0.158D+00 0.624D-01
 Coeff:      0.111D+01
 Gap=     0.273 Goal=   None    Shift=    0.000
 Gap=     0.123 Goal=   None    Shift=    0.000
 RMSDP=1.19D-08 MaxDP=2.28D-07 DE=-3.92D-12 OVMax= 9.90D-07

 Cycle  17  Pass 1  IDiag  1:
 E= -153.216864553910     Delta-E=       -0.000000000001 Rises=F Damp=F
 DIIS: error= 4.21D-08 at cycle   8 NSaved=   8.
 NSaved= 8 IEnMin= 8 EnMin= -153.216864553910     IErMin= 8 ErrMin= 4.21D-08
 ErrMax= 4.21D-08  0.00D+00 EMaxC= 1.00D-01 BMatC= 1.75D-13 BMatP= 8.17D-13
 IDIUse=1 WtCom= 1.00D+00 WtEn= 0.00D+00
 Coeff-Com: -0.107D-02 0.183D-01 0.679D-02-0.441D-02-0.126D+00-0.919D-01
 Coeff-Com:  0.235D+00 0.963D+00
 Coeff:     -0.107D-02 0.183D-01 0.679D-02-0.441D-02-0.126D+00-0.919D-01
 Coeff:      0.235D+00 0.963D+00
 Gap=     0.273 Goal=   None    Shift=    0.000
 Gap=     0.123 Goal=   None    Shift=    0.000
 RMSDP=5.72D-09 MaxDP=1.00D-07 DE=-6.82D-13 OVMax= 3.45D-07

 SCF Done:  E(UB3LYP) =  -153.216864554     A.U. after   17 cycles
            NFock= 17  Conv=0.57D-08     -V/T= 2.0033
 <Sx>= 0.0000 <Sy>= 0.0000 <Sz>= 0.5000 <S**2>= 0.7682 S= 0.5091
 <L.S>= 0.000000000000E+00
 KE= 1.527094382349D+02 PE=-4.860978130032D+02 EE= 1.165701197321D+02
 Annihilation of the first spin contaminant:
 S**2 before annihilation     0.7682,   after     0.7501
 Leave Link  502 at Sat Feb 16 14:12:57 2019, MaxMem=   196608000 cpu:       105.2
 (Enter /cm/shared/c3ddb/gaussian/09.d01/g09/l508.exe)
 QCSCF skips out because SCF is already converged.
 Leave Link  508 at Sat Feb 16 14:12:57 2019, MaxMem=   196608000 cpu:         0.0
 (Enter /cm/shared/c3ddb/gaussian/09.d01/g09/l801.exe)
 DoSCS=F DFT=T ScalE2(SS,OS)=  1.000000  1.000000
 Range of M.O.s used for correlation:     1    72
 NBasis=    72 NAE=    12 NBE=    11 NFC=     0 NFV=     0
 NROrb=     72 NOA=    12 NOB=    11 NVA=    60 NVB=    61
 Leave Link  801 at Sat Feb 16 14:12:57 2019, MaxMem=   196608000 cpu:         0.2
 (Enter /cm/shared/c3ddb/gaussian/09.d01/g09/l1101.exe)
 Using compressed storage, NAtomX=     6.
 Will process      7 centers per pass.
 Leave Link 1101 at Sat Feb 16 14:12:59 2019, MaxMem=   196608000 cpu:         8.1
 (Enter /cm/shared/c3ddb/gaussian/09.d01/g09/l1102.exe)
 Symmetrizing basis deriv contribution to polar:
 IMax=3 JMax=2 DiffMx= 0.00D+00
 Leave Link 1102 at Sat Feb 16 14:12:59 2019, MaxMem=   196608000 cpu:         0.6
 (Enter /cm/shared/c3ddb/gaussian/09.d01/g09/l1110.exe)
 Forming Gx(P) for the SCF density, NAtomX=     6.
 Integral derivatives from FoFJK, PRISM(SPDF).
 Do as many integral derivatives as possible in FoFJK.
 G2DrvN: MDV=     196607848.
 G2DrvN: will do     7 centers at a time, making    1 passes.
 Calling FoFCou, ICntrl=  3107 FMM=F I1Cent=   0 AccDes= 0.00D+00.
 FoFJK:  IHMeth= 1 ICntrl=    3107 DoSepK=F KAlg= 0 I1Cent=   0 FoldK=F
 IRaf=         0 NMat=   1 IRICut=       1 DoRegI=T DoRafI=F ISym2E= 0.
 FoFCou: FMM=F IPFlag=           0 FMFlag=      100000 FMFlg1=           0
         NFxFlg=           0 DoJE=F BraDBF=F KetDBF=F FulRan=T
         wScrn=  0.000000 ICntrl=    3107 IOpCl=  1 I1Cent=           0 NGrid=           0
         NMat0=    1 NMatS0=      1 NMatT0=    0 NMatD0=    1 NMtDS0=    0 NMtDT0=    0
 Symmetry not used in FoFCou.
 End of G2Drv F.D. properties file   721 does not exist.
 End of G2Drv F.D. properties file   722 does not exist.
 End of G2Drv F.D. properties file   788 does not exist.
 Leave Link 1110 at Sat Feb 16 14:13:04 2019, MaxMem=   196608000 cpu:        38.2
 (Enter /cm/shared/c3ddb/gaussian/09.d01/g09/l1002.exe)
 Minotr:  UHF open shell wavefunction.
          IDoAtm=111111
          Direct CPHF calculation.
          Differentiating once with respect to electric field.
                with respect to dipole field.
          Differentiating once with respect to nuclear coordinates.
          Requested convergence is 1.0D-08 RMS, and 1.0D-07 maximum.
          Secondary convergence is 1.0D-12 RMS, and 1.0D-12 maximum.
          NewPWx=T KeepS1=F KeepF1=F KeepIn=T MapXYZ=F SortEE=F KeepMc=T.
          MDV=     196607792 using IRadAn=       2.
 Generate precomputed XC quadrature information.
 Keep R1 and R2 ints in memory in canonical form, NReq=7803650.
 FoFCou: FMM=F IPFlag=           0 FMFlag=           0 FMFlg1=           0
         NFxFlg=           0 DoJE=F BraDBF=F KetDBF=F FulRan=T
         wScrn=  0.000000 ICntrl=     600 IOpCl=  0 I1Cent=           0 NGrid=           0
         NMat0=    1 NMatS0=   2628 NMatT0=    0 NMatD0=    1 NMtDS0=    0 NMtDT0=    0
 Symmetry not used in FoFCou.
          Solving linear equations simultaneously, MaxMat=       0.
          There are    21 degrees of freedom in the 1st order CPHF.  IDoFFX=6 NUNeed=     3.
     18 vectors produced by pass  0 Test12= 6.62D-15 4.76D-09 XBig12= 7.61D+01 5.40D+00.
 AX will form    18 AO Fock derivatives at one time.
     18 vectors produced by pass  1 Test12= 6.62D-15 4.76D-09 XBig12= 2.00D+01 1.47D+00.
     18 vectors produced by pass  2 Test12= 6.62D-15 4.76D-09 XBig12= 7.37D-01 3.76D-01.
     18 vectors produced by pass  3 Test12= 6.62D-15 4.76D-09 XBig12= 5.80D-03 2.36D-02.
     18 vectors produced by pass  4 Test12= 6.62D-15 4.76D-09 XBig12= 2.52D-05 9.28D-04.
     18 vectors produced by pass  5 Test12= 6.62D-15 4.76D-09 XBig12= 1.83D-07 1.13D-04.
     14 vectors produced by pass  6 Test12= 6.62D-15 4.76D-09 XBig12= 8.61D-10 5.83D-06.
      4 vectors produced by pass  7 Test12= 6.62D-15 4.76D-09 XBig12= 4.06D-12 2.94D-07.
      1 vectors produced by pass  8 Test12= 6.62D-15 4.76D-09 XBig12= 1.74D-14 2.09D-08.
 InvSVY:  IOpt=1 It=  1 EMax= 3.55D-15
 Solved reduced A of dimension   127 with    21 vectors.
 FullF1:  Do perturbations    1 to     3.
 Isotropic polarizability for W=    0.000000       24.67 Bohr**3.
 End of Minotr F.D. properties file   721 does not exist.
 End of Minotr F.D. properties file   722 does not exist.
 End of Minotr F.D. properties file   788 does not exist.
 Leave Link 1002 at Sat Feb 16 14:13:21 2019, MaxMem=   196608000 cpu:        96.2
 (Enter /cm/shared/c3ddb/gaussian/09.d01/g09/l601.exe)
 Copying SCF densities to generalized density rwf, IOpCl= 1 IROHF=0.

 **********************************************************************

            Population analysis using the SCF density.

 **********************************************************************

 Orbital symmetries:
 Alpha Orbitals:
       Occupied  (A) (A) (A) (A) (A) (A) (A) (A) (A) (A) (A) (A)
       Virtual   (A) (A) (A) (A) (A) (A) (A) (A) (A) (A) (A) (A)
                 (A) (A) (A) (A) (A) (A) (A) (A) (A) (A) (A) (A)
                 (A) (A) (A) (A) (A) (A) (A) (A) (A) (A) (A) (A)
                 (A) (A) (A) (A) (A) (A) (A) (A) (A) (A) (A) (A)
                 (A) (A) (A) (A) (A) (A) (A) (A) (A) (A) (A) (A)
 Beta  Orbitals:
       Occupied  (A) (A) (A) (A) (A) (A) (A) (A) (A) (A) (A)
       Virtual   (A) (A) (A) (A) (A) (A) (A) (A) (A) (A) (A) (A)
                 (A) (A) (A) (A) (A) (A) (A) (A) (A) (A) (A) (A)
                 (A) (A) (A) (A) (A) (A) (A) (A) (A) (A) (A) (A)
                 (A) (A) (A) (A) (A) (A) (A) (A) (A) (A) (A) (A)
                 (A) (A) (A) (A) (A) (A) (A) (A) (A) (A) (A) (A)
                 (A)
 The electronic state is 2-A.
 Alpha  occ. eigenvalues --  -19.12706 -10.25625 -10.21985  -1.05243  -0.76886
 Alpha  occ. eigenvalues --   -0.58811  -0.50364  -0.45776  -0.42079  -0.41981
 Alpha  occ. eigenvalues --   -0.27472  -0.27421
 Alpha virt. eigenvalues --   -0.00115   0.05148   0.07029   0.11181   0.20538
 Alpha virt. eigenvalues --    0.24781   0.32323   0.34368   0.37075   0.42264
 Alpha virt. eigenvalues --    0.45264   0.56703   0.57067   0.60035   0.62301
 Alpha virt. eigenvalues --    0.64088   0.72071   0.82710   0.82889   0.94530
 Alpha virt. eigenvalues --    0.98851   1.03195   1.23868   1.30371   1.38978
 Alpha virt. eigenvalues --    1.39339   1.44872   1.51834   1.56484   1.59141
 Alpha virt. eigenvalues --    1.73408   1.75823   1.90824   1.92578   2.00821
 Alpha virt. eigenvalues --    2.06375   2.11693   2.22725   2.47264   2.50357
 Alpha virt. eigenvalues --    2.52447   2.53243   2.62168   2.71085   2.79534
 Alpha virt. eigenvalues --    2.88384   2.92742   3.10305   3.28385   3.35069
 Alpha virt. eigenvalues --    3.50235   3.67102   3.81396   4.08400   4.82067
 Alpha virt. eigenvalues --    4.96620   5.55214  23.72104  23.94022  49.90880
  Beta  occ. eigenvalues --  -19.11750 -10.25854 -10.20862  -1.03520  -0.74136
  Beta  occ. eigenvalues --   -0.58068  -0.49681  -0.44877  -0.41328  -0.38161
  Beta  occ. eigenvalues --   -0.26422
  Beta virt. eigenvalues --   -0.14080   0.03154   0.05474   0.07307   0.11363
  Beta virt. eigenvalues --    0.20684   0.24992   0.33196   0.35913   0.39219
  Beta virt. eigenvalues --    0.42754   0.47573   0.56799   0.57624   0.60513
  Beta virt. eigenvalues --    0.63139   0.64589   0.73348   0.83132   0.85641
  Beta virt. eigenvalues --    0.95001   1.01146   1.05263   1.24405   1.31611
  Beta virt. eigenvalues --    1.39636   1.40036   1.44786   1.54309   1.56536
  Beta virt. eigenvalues --    1.60051   1.74041   1.76534   1.92560   1.93426
  Beta virt. eigenvalues --    2.02945   2.07216   2.11894   2.22759   2.47593
  Beta virt. eigenvalues --    2.50653   2.52712   2.55341   2.62944   2.74548
  Beta virt. eigenvalues --    2.80302   2.91512   2.95109   3.11004   3.30742
  Beta virt. eigenvalues --    3.35993   3.50662   3.68653   3.81903   4.09640
  Beta virt. eigenvalues --    4.86249   4.97424   5.55936  23.72596  23.94581
  Beta virt. eigenvalues --   49.91848
          Condensed to atoms (all electrons):
               1          2          3          4          5          6
     1  O    7.836897  -0.092550   0.569758   0.004796   0.009236  -0.049977
     2  C   -0.092550   5.282552   0.390254   0.350963   0.369461  -0.114410
     3  C    0.569758   0.390254   4.568780  -0.017896  -0.026034   0.393511
     4  H    0.004796   0.350963  -0.017896   0.554025  -0.024678   0.004622
     5  H    0.009236   0.369461  -0.026034  -0.024678   0.520199   0.010348
     6  H   -0.049977  -0.114410   0.393511   0.004622   0.010348   0.682736
          Atomic-Atomic Spin Densities.
               1          2          3          4          5          6
     1  O    0.408695  -0.020991  -0.027859  -0.000162   0.000314   0.001023
     2  C   -0.020991   0.859736   0.021202   0.002798  -0.000058   0.000540
     3  C   -0.027859   0.021202  -0.144122  -0.001077  -0.001009   0.004137
     4  H   -0.000162   0.002798  -0.001077  -0.043275   0.003186   0.000149
     5  H    0.000314  -0.000058  -0.001009   0.003186  -0.040302  -0.000306
     6  H    0.001023   0.000540   0.004137   0.000149  -0.000306  -0.004504
 Mulliken charges and spin densities:
               1          2
     1  O   -0.278161   0.361019
     2  C   -0.186271   0.863227
     3  C    0.121627  -0.148728
     4  H    0.128168  -0.038382
     5  H    0.141468  -0.038176
     6  H    0.073169   0.001040
 Sum of Mulliken charges =   0.00000   1.00000
 Mulliken charges and spin densities with hydrogens summed into heavy atoms:
               1          2
     1  O   -0.278161   0.361019
     2  C    0.083365   0.786669
     3  C    0.194796  -0.147688
 APT charges:
               1
     1  O   -0.507270
     2  C   -0.050859
     3  C    0.524740
     4  H    0.037611
     5  H    0.050316
     6  H   -0.054537
 Sum of APT charges =   0.00000
 APT charges with hydrogens summed into heavy atoms:
               1
     1  O   -0.507270
     2  C    0.037068
     3  C    0.470202
 Electronic spatial extent (au):  <R**2>=            150.2715
 Charge=              0.0000 electrons
 Dipole moment (field-independent basis, Debye):
    X=              2.6858    Y=              0.8758    Z=              0.0000  Tot=              2.8250
 Quadrupole moment (field-independent basis, Debye-Ang):
   XX=            -18.9784   YY=            -16.7032   ZZ=            -18.2490
   XY=             -0.9148   XZ=              0.0000   YZ=              0.0000
 Traceless Quadrupole moment (field-independent basis, Debye-Ang):
   XX=             -1.0016   YY=              1.2737   ZZ=             -0.2721
   XY=             -0.9148   XZ=              0.0000   YZ=              0.0000
 Octapole moment (field-independent basis, Debye-Ang**2):
  XXX=              2.5670  YYY=             -1.0515  ZZZ=              0.0000  XYY=             -0.1406
  XXY=              0.8318  XXZ=              0.0000  XZZ=             -2.5677  YZZ=             -0.3599
  YYZ=              0.0000  XYZ=              0.0000
 Hexadecapole moment (field-independent basis, Debye-Ang**3):
 XXXX=           -128.6830 YYYY=            -40.3861 ZZZZ=            -17.5740 XXXY=              3.2514
 XXXZ=              0.0000 YYYX=             -1.0743 YYYZ=              0.0000 ZZZX=              0.0000
 ZZZY=              0.0000 XXYY=            -27.7066 XXZZ=            -25.4860 YYZZ=            -10.5871
 XXYZ=              0.0000 YYXZ=              0.0000 ZZXY=              0.5921
 N-N= 6.360139048218D+01 E-N=-4.860978148583D+02  KE= 1.527094382349D+02
  Exact polarizability:  34.807   0.213  25.850   0.000   0.000  13.360
 Approx polarizability:  53.781   4.538  34.049   0.000   0.000  17.961
                          Isotropic Fermi Contact Couplings
        Atom                 a.u.       MegaHertz       Gauss      10(-4) cm-1
     1  O(17)              0.02583     -15.65917      -5.58758      -5.22334
     2  C(13)              0.04756      53.46340      19.07707      17.83347
     3  C(13)             -0.03691     -41.49040     -14.80480     -13.83971
     4  H(1)              -0.01116     -49.87336     -17.79605     -16.63596
     5  H(1)              -0.01099     -49.14114     -17.53478     -16.39172
     6  H(1)               0.00025       1.10208       0.39325       0.36761
 --------------------------------------------------------
       Center         ----  Spin Dipole Couplings  ----
                      3XX-RR        3YY-RR        3ZZ-RR
 --------------------------------------------------------
     1   Atom       -0.733405     -0.736754      1.470158
     2   Atom       -0.454877     -0.456828      0.911706
     3   Atom        0.095690      0.044048     -0.139738
     4   Atom        0.025374     -0.021271     -0.004103
     5   Atom       -0.052883      0.058565     -0.005682
     6   Atom        0.006724      0.003274     -0.009998
 --------------------------------------------------------
                        XY            XZ            YZ
 --------------------------------------------------------
     1   Atom        0.003960      0.000000      0.000001
     2   Atom        0.002855      0.000000     -0.000001
     3   Atom        0.009425      0.000000      0.000000
     4   Atom        0.056034      0.000000      0.000000
     5   Atom       -0.012238      0.000000      0.000000
     6   Atom       -0.008455      0.000000      0.000000
 --------------------------------------------------------


 ---------------------------------------------------------------------------------
              Anisotropic Spin Dipole Couplings in Principal Axis System
 ---------------------------------------------------------------------------------

       Atom             a.u.   MegaHertz   Gauss  10(-4) cm-1        Axes

              Baa    -0.7394    53.501    19.090    17.846 -0.5525  0.8335  0.0000
     1 O(17)  Bbb    -0.7308    52.879    18.868    17.638  0.8335  0.5525  0.0000
              Bcc     1.4702  -106.380   -37.959   -35.484  0.0000  0.0000  1.0000
 
              Baa    -0.4589   -61.576   -21.972   -20.540 -0.5816  0.8134  0.0000
     2 C(13)  Bbb    -0.4528   -60.766   -21.683   -20.269  0.8134  0.5816  0.0000
              Bcc     0.9117   122.342    43.655    40.809  0.0000  0.0000  1.0000
 
              Baa    -0.1397   -18.752    -6.691    -6.255  0.0000  0.0000  1.0000
     3 C(13)  Bbb     0.0424     5.687     2.029     1.897 -0.1741  0.9847  0.0000
              Bcc     0.0974    13.064     4.662     4.358  0.9847  0.1741  0.0000
 
              Baa    -0.0586   -31.289   -11.165   -10.437 -0.5549  0.8319  0.0000
     4 H(1)   Bbb    -0.0041    -2.189    -0.781    -0.730  0.0000  0.0000  1.0000
              Bcc     0.0627    33.478    11.946    11.167  0.8319  0.5549  0.0000
 
              Baa    -0.0542   -28.924   -10.321    -9.648  0.9942  0.1079  0.0000
     5 H(1)   Bbb    -0.0057    -3.032    -1.082    -1.011  0.0000  0.0000  1.0000
              Bcc     0.0599    31.956    11.403    10.659 -0.1079  0.9942  0.0000
 
              Baa    -0.0100    -5.334    -1.903    -1.779  0.0000  0.0000  1.0000
     6 H(1)   Bbb    -0.0036    -1.937    -0.691    -0.646  0.6325  0.7746  0.0000
              Bcc     0.0136     7.271     2.595     2.425  0.7746 -0.6325  0.0000
 

 ---------------------------------------------------------------------------------

 No NMR shielding tensors so no spin-rotation constants.
 Leave Link  601 at Sat Feb 16 14:13:22 2019, MaxMem=   196608000 cpu:         7.0
 (Enter /cm/shared/c3ddb/gaussian/09.d01/g09/l701.exe)
 Compute integral second derivatives.
 ... and contract with generalized density number  0.
 Entering OneElI...
 Calculate overlap and kinetic energy integrals
    NBasis =  75  MinDer = 2  MaxDer = 2
 Requested accuracy = 0.1000D-12
 PrsmSu:  NPrtUS=   8 ThrOK=T IAlg=1 NPAlg=1 LenDen=           0.
 Prism:   IPart=     0 DynPar=F LinDyn=F Incr=           1.
 PRISM was handed    24558934 working-precision words and   378 shell-pairs
 PRISM was handed    24558934 working-precision words and   378 shell-pairs
 PRISM was handed    24558934 working-precision words and   378 shell-pairs
 PRISM was handed    24558934 working-precision words and   378 shell-pairs
 PRISM was handed    24558934 working-precision words and   378 shell-pairs
 PRISM was handed    24558934 working-precision words and   378 shell-pairs
 PRISM was handed    24558934 working-precision words and   378 shell-pairs
 PRISM was handed    24558934 working-precision words and   378 shell-pairs
 IPart=  0 NShTot=          77 NBatch=          42 AvBLen=         1.8
 IPart=  6 NShTot=          35 NBatch=          19 AvBLen=         1.8
 IPart=  3 NShTot=          45 NBatch=          24 AvBLen=         1.9
 IPart=  4 NShTot=          40 NBatch=          22 AvBLen=         1.8
 IPart=  5 NShTot=          37 NBatch=          21 AvBLen=         1.8
 IPart=  2 NShTot=          50 NBatch=          29 AvBLen=         1.7
 IPart=  7 NShTot=          35 NBatch=          19 AvBLen=         1.8
 IPart=  1 NShTot=          59 NBatch=          31 AvBLen=         1.9
 PrSmSu:  NxtVal=              9.
 Entering OneElI...
 Calculate potential energy integrals
    NBasis =  75  MinDer = 2  MaxDer = 2
 Requested accuracy = 0.1000D-12
 PrsmSu:  NPrtUS=   8 ThrOK=T IAlg=1 NPAlg=1 LenDen=           0.
 Prism:   IPart=     0 DynPar=F LinDyn=F Incr=           2.
 PRISM was handed    24560550 working-precision words and   377 shell-pairs
 PRISM was handed    24560550 working-precision words and   377 shell-pairs
 PRISM was handed    24560550 working-precision words and   377 shell-pairs
 PRISM was handed    24560550 working-precision words and   377 shell-pairs
 PRISM was handed    24560550 working-precision words and   377 shell-pairs
 PRISM was handed    24560550 working-precision words and   377 shell-pairs
 PRISM was handed    24560550 working-precision words and   377 shell-pairs
 PRISM was handed    24560550 working-precision words and   377 shell-pairs
 IPart=  0 NShTot=         432 NBatch=          72 AvBLen=         6.0
 IPart=  4 NShTot=         240 NBatch=          40 AvBLen=         6.0
 IPart=  3 NShTot=         252 NBatch=          42 AvBLen=         6.0
 IPart=  6 NShTot=         216 NBatch=          36 AvBLen=         6.0
 IPart=  5 NShTot=         228 NBatch=          38 AvBLen=         6.0
 IPart=  2 NShTot=         312 NBatch=          52 AvBLen=         6.0
 IPart=  7 NShTot=         210 NBatch=          35 AvBLen=         6.0
 IPart=  1 NShTot=         372 NBatch=          62 AvBLen=         6.0
 PrSmSu:  NxtVal=             17.
 Polarizability after L701:
                1             2             3 
      1  0.348071D+02
      2  0.212537D+00  0.258503D+02
      3  0.000000D+00  0.000000D+00  0.133601D+02
 Dipole Derivatives after L701:
                 1             2             3             4             5 
      1  -0.687875D+00 -0.112237D+00  0.000000D+00 -0.241801D-02  0.207110D+00
      2  -0.740259D-01 -0.503564D+00  0.000000D+00  0.217209D+00  0.234234D-01
      3   0.000000D+00  0.000000D+00 -0.330370D+00  0.000000D+00  0.000000D+00
                 6             7             8             9            10 
      1   0.000000D+00  0.622275D+00 -0.562870D-01  0.000000D+00 -0.845391D-02
      2   0.000000D+00 -0.962024D-01  0.780967D+00  0.000000D+00 -0.308148D-01
      3  -0.173581D+00  0.000000D+00  0.000000D+00  0.170977D+00  0.000000D+00
                11            12            13            14            15 
      1  -0.831196D-01  0.000000D+00  0.444057D-01  0.282102D-01  0.000000D+00
      2   0.599707D-02  0.000000D+00 -0.246629D-01 -0.326985D-01  0.000000D+00
      3   0.000000D+00  0.115288D+00  0.000000D+00  0.000000D+00  0.139240D+00
                16            17            18 
      1   0.320664D-01  0.163231D-01  0.000000D+00
      2   0.849699D-02 -0.274125D+00  0.000000D+00
      3   0.000000D+00  0.000000D+00  0.784460D-01
 Hessian after L701:
                1             2             3             4             5 
      1  0.222702D+00
      2 -0.587089D+01  0.697483D+01
      3  0.000000D+00  0.000000D+00  0.122502D+02
      4  0.730156D+00 -0.429681D+00  0.000000D+00  0.301941D+01
      5 -0.378170D+00 -0.237448D+00  0.000000D+00  0.172563D+01  0.739398D+01
      6  0.000000D+00  0.000000D+00 -0.795152D-01  0.000000D+00 -0.160343D-05
      7 -0.111995D+01  0.640544D+01  0.000000D+00  0.210733D+00 -0.229125D+01
      8  0.643903D+01 -0.704429D+01  0.000000D+00 -0.237865D+01 -0.448774D+01
      9  0.000000D+00  0.000000D+00 -0.120967D+02  0.000000D+00  0.000000D+00
     10  0.165064D+00  0.832766D-01  0.000000D+00 -0.128866D+01  0.949637D+00
     11  0.882404D-01 -0.140634D-01  0.000000D+00  0.873831D+00 -0.192351D+01
     12  0.000000D+00  0.000000D+00 -0.430374D-01  0.000000D+00  0.000000D+00
     13  0.150077D+00 -0.291622D-01  0.000000D+00 -0.271078D+01 -0.246766D+00
     14 -0.152188D+00 -0.628079D-01  0.000000D+00 -0.867518D-01 -0.617486D+00
     15  0.000000D+00  0.000000D+00 -0.853844D-01  0.000000D+00  0.177338D-05
     16 -0.148053D+00 -0.158979D+00  0.000000D+00  0.391401D-01  0.240923D+00
     17 -0.126021D+00  0.383787D+00  0.000000D+00  0.295626D+00 -0.127795D+00
     18  0.000000D+00  0.000000D+00  0.544548D-01  0.000000D+00  0.000000D+00
                6             7             8             9            10 
      6  0.109256D+02
      7  0.000000D+00  0.375451D+01
      8  0.000000D+00 -0.394005D+01  0.119134D+02
      9 -0.593697D+01  0.000000D+00  0.170129D-05  0.208115D+02
     10  0.000000D+00  0.318399D-01 -0.908384D-02  0.000000D+00  0.103055D+01
     11  0.000000D+00  0.484350D-01 -0.131977D-03  0.000000D+00 -0.938650D+00
     12 -0.249311D+01  0.000000D+00  0.000000D+00 -0.114257D-01  0.000000D+00
     13  0.000000D+00 -0.362500D-02  0.116272D-01  0.000000D+00  0.325274D-01
     14  0.192723D-05 -0.520252D-01  0.960037D-01  0.000000D+00 -0.447020D-01
     15 -0.262332D+01  0.000000D+00  0.000000D+00  0.885979D-02  0.000000D+00
     16  0.000000D+00 -0.287351D+01 -0.122870D+00  0.000000D+00  0.286840D-01
     17  0.000000D+00 -0.170545D+00 -0.477286D+00 -0.120572D-05 -0.404781D-01
     18  0.207303D+00  0.000000D+00 -0.111759D-05 -0.277530D+01  0.000000D+00
               11            12            13            14            15 
     11  0.200862D+01
     12  0.000000D+00  0.252266D+01
     13 -0.615800D-01  0.000000D+00  0.253562D+01
     14 -0.593265D-01  0.000000D+00  0.380694D+00  0.550177D+00
     15  0.000000D+00  0.431990D-01  0.000000D+00 -0.189904D-05  0.267495D+01
     16 -0.102768D-01  0.000000D+00 -0.382058D-02 -0.450272D-01  0.000000D+00
     17 -0.115896D-01  0.000000D+00 -0.548127D-01  0.934399D-01  0.000000D+00
     18  0.000000D+00 -0.182863D-01  0.000000D+00  0.000000D+00 -0.183066D-01
               16            17            18 
     16  0.295756D+01
     17  0.962306D-01  0.139444D+00
     18  0.000000D+00  0.116771D-05  0.255013D+01
 Leave Link  701 at Sat Feb 16 14:13:22 2019, MaxMem=   196608000 cpu:         4.5
 (Enter /cm/shared/c3ddb/gaussian/09.d01/g09/l702.exe)
 L702 exits ... SP integral derivatives will be done elsewhere.
 Leave Link  702 at Sat Feb 16 14:13:22 2019, MaxMem=   196608000 cpu:         0.2
 (Enter /cm/shared/c3ddb/gaussian/09.d01/g09/l703.exe)
 Compute integral second derivatives, UseDBF=F ICtDFT=           0.
 Integral derivatives from FoFJK, PRISM(SPDF).
 ICntrl=    100127.
 Calling FoFJK, ICntrl=    100127 FMM=F ISym2X=0 I1Cent= 0 IOpClX= 1 NMat=1 NMatS=1 NMatT=0.
 FoFJK:  IHMeth= 1 ICntrl=  100127 DoSepK=F KAlg= 0 I1Cent=   0 FoldK=F
 IRaf=         0 NMat=   1 IRICut=       1 DoRegI=T DoRafI=F ISym2E= 0.
 FoFCou: FMM=F IPFlag=           0 FMFlag=      100000 FMFlg1=         800
         NFxFlg=           0 DoJE=F BraDBF=F KetDBF=F FulRan=T
         wScrn=  0.000000 ICntrl=  100127 IOpCl=  1 I1Cent=           0 NGrid=           0
         NMat0=    1 NMatS0=      1 NMatT0=    0 NMatD0=    1 NMtDS0=    0 NMtDT0=    0
 Symmetry not used in FoFCou.
 FoFCou:  KetSym=F NOpSet=  1 NOpAb=1 NOp=  1.
 FoFCou:  CnvScl= 1.00D+00 Thresh= 1.00D-10 IAcrcy=      10.
 PrismS was handed   196560746 working-precision words and   378 shell-pairs
 FoFCou: LinMIO=F DoNuc=F BraDBF=F KetDBF=F HaveP=T PDBF=F HaveZ=T HaveW=F
         NIJTC =      10 NIJTAt=       0 NIJTCD=       0 NIJTT =      10
         IJTBeg=       1 IJTEnd=      10 KLTBeg=       1 KLTEnd=      10
         IPTBeg=       1 IPTEnd=      10 IPTBCv=       1 IPTECv=      10
         IZTBeg=       1 IZTEnd=      10 IZTBCv=       1 IZTECv=      10
         IWTBeg=      11 IWTEnd=      10 IWTBCv=      11 IWTECv=      10
         INTBeg=       1 INTEnd=       0 IFTBCv=       1 IFTECv=      10
 NCel replicated for PrismC:     1
 CoulSu:  IncDef=  1024 NBBP=          71631 NTPThr=   100 NPartT=    8 Incr=          89 LDynOK=F.
 CoulSu:  NPrtUS=   8 ThrOK=T IAlg=1 NPAlg=1 LenDen=           0 LWGrdD=           0 DoCopy=F.
 Enter PrismC: JobTyp=22 DoJE=F Cont=F.
 PrismC:  IPart=     0 DynPar=F LinDyn=F Incr=          89 UseFst=F UseS4=T IGathr=2.
 PrismC was handed    24559443 working-precision words and   378 shell-pairs
 Enter PrismC: JobTyp=22 DoJE=F Cont=F.
 Enter PrismC: JobTyp=22 DoJE=F Cont=F.
 Enter PrismC: JobTyp=22 DoJE=F Cont=F.
 PrismC was handed    24559443 working-precision words and   378 shell-pairs
 PrismC was handed    24559443 working-precision words and   378 shell-pairs
 Enter PrismC: JobTyp=22 DoJE=F Cont=F.
 PrismC was handed    24559443 working-precision words and   378 shell-pairs
 Enter PrismC: JobTyp=22 DoJE=F Cont=F.
 PrismC was handed    24559443 working-precision words and   378 shell-pairs
 PrismC was handed    24559443 working-precision words and   378 shell-pairs
 Enter PrismC: JobTyp=22 DoJE=F Cont=F.
 PrismC was handed    24559443 working-precision words and   378 shell-pairs
 Enter PrismC: JobTyp=22 DoJE=F Cont=F.
 PrismC was handed    24559443 working-precision words and   378 shell-pairs
 IPart=  0 NShTot=        8722 NShNF=        8722 NShFF=           0 NBatch=         983 AvBLen=         8.9
 IPart=  7 NShTot=        8049 NShNF=        8049 NShFF=           0 NBatch=         839 AvBLen=         9.6
 IPart=  5 NShTot=        8221 NShNF=        8221 NShFF=           0 NBatch=         869 AvBLen=         9.5
 IPart=  4 NShTot=        8356 NShNF=        8356 NShFF=           0 NBatch=         895 AvBLen=         9.3
 IPart=  2 NShTot=        8525 NShNF=        8525 NShFF=           0 NBatch=         952 AvBLen=         9.0
 IPart=  1 NShTot=        8545 NShNF=        8545 NShFF=           0 NBatch=         936 AvBLen=         9.1
 IPart=  3 NShTot=        8321 NShNF=        8321 NShFF=           0 NBatch=         877 AvBLen=         9.5
 IPart=  6 NShTot=        8192 NShNF=        8192 NShFF=           0 NBatch=         873 AvBLen=         9.4
 CoulSu:  NxtVal=            713.
 ReadGW:  IGet=0 IStart=           1 Next=           1 LGW=           0.
 Remaining memory in FofDFT      187.49 Mw
 CkSvGd:  ISavGI=        -1 IRadAn=       4 IRASav=       0 ISavGd=        -1.
 CalDSu:  NPrtUS=   8 ThrOK=T IAlg=1 NPAlg=2 DoDPD=T LenP=        2850 LenD1P=             0.
 IPart=  0 IRanGd=          0 ScrnBf=T ScrnGd=T RCrit=4.00D+00 DoMicB=T.
 IPart=  4         6044 of         6416 points in      13 batches and       40 microbatches, Max-NSigAt=       6 Max-NSgAt2=       6
 IPart=  0         8831 of         9612 points in      20 batches and       48 microbatches, Max-NSigAt=       6 Max-NSgAt2=       6
 IPart=  2         6150 of         6592 points in      14 batches and       49 microbatches, Max-NSigAt=       6 Max-NSgAt2=       6
 IPart=  7         5766 of         6300 points in      14 batches and       60 microbatches, Max-NSigAt=       6 Max-NSgAt2=       6
 IPart=  1         4256 of         4546 points in       9 batches and       35 microbatches, Max-NSigAt=       6 Max-NSgAt2=       6
 IPart=  3         3544 of         3624 points in       6 batches and       18 microbatches, Max-NSigAt=       6 Max-NSgAt2=       6
 IPart=  5         5734 of         6160 points in      13 batches and       52 microbatches, Max-NSigAt=       6 Max-NSgAt2=       6
 IPart=  6         4030 of         4224 points in       8 batches and       35 microbatches, Max-NSigAt=       6 Max-NSgAt2=       6
 Polarizability after L703:
                1             2             3 
      1  0.348071D+02
      2  0.212537D+00  0.258503D+02
      3  0.000000D+00  0.000000D+00  0.133601D+02
 Dipole Derivatives after L703:
                 1             2             3             4             5 
      1  -0.687875D+00 -0.112237D+00  0.000000D+00 -0.241801D-02  0.207110D+00
      2  -0.740259D-01 -0.503564D+00  0.000000D+00  0.217209D+00  0.234234D-01
      3   0.000000D+00  0.000000D+00 -0.330370D+00  0.000000D+00  0.000000D+00
                 6             7             8             9            10 
      1   0.000000D+00  0.622275D+00 -0.562870D-01  0.000000D+00 -0.845391D-02
      2   0.000000D+00 -0.962024D-01  0.780967D+00  0.000000D+00 -0.308148D-01
      3  -0.173581D+00  0.000000D+00  0.000000D+00  0.170977D+00  0.000000D+00
                11            12            13            14            15 
      1  -0.831196D-01  0.000000D+00  0.444057D-01  0.282102D-01  0.000000D+00
      2   0.599707D-02  0.000000D+00 -0.246629D-01 -0.326985D-01  0.000000D+00
      3   0.000000D+00  0.115288D+00  0.000000D+00  0.000000D+00  0.139240D+00
                16            17            18 
      1   0.320664D-01  0.163231D-01  0.000000D+00
      2   0.849699D-02 -0.274125D+00  0.000000D+00
      3   0.000000D+00  0.000000D+00  0.784460D-01
 Hessian after L703:
                1             2             3             4             5 
      1  0.501757D+00
      2  0.265877D+00  0.245819D+00
      3  0.000000D+00  0.000000D+00  0.203012D-01
      4 -0.118151D+00 -0.419762D-01  0.000000D+00  0.595883D+00
      5 -0.732228D-02  0.393506D-01  0.000000D+00  0.338406D-01  0.643624D+00
      6  0.000000D+00  0.000000D+00  0.174273D-01  0.000000D+00  0.000000D+00
      7 -0.376200D+00 -0.179988D+00  0.000000D+00 -0.168776D+00  0.543529D-01
      8 -0.232099D+00 -0.259582D+00  0.000000D+00  0.120789D+00 -0.172743D+00
      9  0.000000D+00  0.000000D+00 -0.505995D-01  0.000000D+00  0.000000D+00
     10 -0.779365D-02  0.350173D-02  0.000000D+00 -0.251012D+00 -0.131993D+00
     11  0.329174D-02  0.292032D-04  0.000000D+00 -0.136795D+00 -0.154912D+00
     12  0.000000D+00  0.000000D+00  0.206958D-02  0.000000D+00  0.000000D+00
     13  0.314628D-02 -0.333556D-02  0.000000D+00 -0.583429D-01  0.214651D-01
     14 -0.569494D-03  0.293717D-02  0.000000D+00  0.249290D-01 -0.343833D+00
     15  0.000000D+00  0.000000D+00 -0.414156D-02  0.000000D+00  0.000000D+00
     16 -0.275788D-02 -0.440788D-01  0.000000D+00  0.398961D-03  0.296566D-01
     17 -0.291779D-01 -0.285536D-01  0.000000D+00 -0.787443D-03 -0.114861D-01
     18  0.000000D+00  0.000000D+00  0.149429D-01  0.000000D+00  0.000000D+00
                6             7             8             9            10 
      6  0.769513D-01
      7  0.000000D+00  0.611936D+00
      8  0.000000D+00  0.755156D-01  0.696199D+00
      9 -0.624507D-01  0.000000D+00  0.000000D+00  0.150161D+00
     10  0.000000D+00 -0.825367D-02 -0.231207D-01  0.000000D+00  0.260158D+00
     11  0.000000D+00  0.109575D-01  0.118697D-01  0.000000D+00  0.145634D+00
     12 -0.210420D-01  0.000000D+00  0.000000D+00  0.716642D-02  0.000000D+00
     13  0.000000D+00  0.353516D-02  0.304212D-01  0.000000D+00  0.632653D-02
     14  0.000000D+00 -0.289022D-02 -0.117618D-01  0.000000D+00  0.474341D-02
     15 -0.250115D-01  0.000000D+00  0.000000D+00  0.769212D-02  0.000000D+00
     16  0.000000D+00 -0.622413D-01  0.284937D-01  0.000000D+00  0.575422D-03
     17  0.000000D+00  0.420518D-01 -0.263982D+00  0.000000D+00  0.123439D-02
     18  0.141254D-01  0.000000D+00  0.000000D+00 -0.519691D-01  0.000000D+00
               11            12            13            14            15 
     11  0.150261D+00
     12  0.000000D+00  0.103456D-01
     13 -0.220840D-01  0.000000D+00  0.501622D-01
     14 -0.723220D-02  0.000000D+00 -0.283806D-01  0.359508D+00
     15  0.000000D+00  0.467001D-02  0.000000D+00  0.000000D+00  0.129868D-01
     16 -0.100458D-02  0.000000D+00 -0.482729D-02  0.216791D-02  0.000000D+00
     17 -0.153131D-04  0.000000D+00  0.191385D-02  0.382087D-03  0.000000D+00
     18  0.000000D+00 -0.320961D-02  0.000000D+00  0.000000D+00  0.380404D-02
               16            17            18 
     16  0.688521D-01
     17 -0.152348D-01  0.303655D+00
     18  0.000000D+00  0.000000D+00  0.223064D-01
 Leave Link  703 at Sat Feb 16 14:13:29 2019, MaxMem=   196608000 cpu:        45.7
 (Enter /cm/shared/c3ddb/gaussian/09.d01/g09/l716.exe)
 FrcOut:
 IF    =    46 IFX   =    64 IFXYZ =    82
 IFFX  =   100 IFFFX =   271 IFLen =    18
 IFFLen=   171 IFFFLn=     0 IEDerv=   271
 LEDerv=   917 IFroze=  1408 ICStrt= 11995
 Dipole        = 1.05668439D+00 3.44572268D-01-2.90361643D-07
 DipoleDeriv   =-6.87875330D-01-7.40259065D-02 9.90588313D-08
                -1.12236978D-01-5.03564000D-01 1.21458837D-07
                 3.90033197D-08-6.90915757D-09-3.30370325D-01
                -2.41800720D-03 2.17208963D-01 2.83286755D-08
                 2.07110322D-01 2.34233679D-02 1.78978365D-07
                -3.82111903D-07 2.48888034D-07-1.73581027D-01
                 6.22275232D-01-9.62023638D-02-9.95086568D-08
                -5.62869792D-02 7.80966886D-01-3.16134930D-07
                 3.88457021D-08-1.77878788D-07 1.70977164D-01
                -8.45391364D-03-3.08147938D-02-1.16858530D-08
                -8.31196066D-02 5.99707107D-03-2.31144396D-08
                 2.16036767D-07-2.19042032D-08 1.15288424D-01
                 4.44056649D-02-2.46628924D-02-2.99714817D-08
                 2.82101841D-02-3.26985165D-02-5.04264800D-08
                 1.10249367D-07-1.70832636D-07 1.39239728D-01
                 3.20663542D-02 8.49699333D-03 1.37362469D-08
                 1.63230583D-02-2.74124808D-01 8.93318905D-08
                -2.20517618D-08 1.28642905D-07 7.84460355D-02
 Polarizability= 3.48070715D+01 2.12536609D-01 2.58502821D+01
                 8.15655389D-07 1.47774327D-07 1.33600570D+01
 VibFq2-Diag1:  N=     18 IV=           7 MDV=   196594575 NE2=    10921920
 Full mass-weighted force constant matrix:
 Low frequencies ---  -17.6009   -0.0009    0.0002    0.0011    6.3603   19.8736
 Low frequencies ---  448.5279  504.3019  754.4489
 OrtVCM:  Ph=1 IPass= 1 DotMx1= 0.00D+00
 OrtVCM:  IS=    1 I=    1 IndO=    1 Dot= 1.00D+00 DotN= 1.00D+00 ElMax1= 6.10D-01 ElMax1N= 6.10D-01
 OrtVCM:  Ph=2 NNew=    0 IAdd=    2 IPass= 1 DotMx2= 0.00D+00
 OrtVCM:  IS=    1 I=    2 IndO=    2 Dot= 1.00D+00 DotN= 1.00D+00 ElMax1= 6.10D-01 ElMax1N= 6.10D-01
 OrtVCM:  Ph=2 NNew=    0 IAdd=    3 IPass= 1 DotMx2= 0.00D+00
 OrtVCM:  IS=    1 I=    3 IndO=    3 Dot= 1.00D+00 DotN= 1.00D+00 ElMax1= 6.10D-01 ElMax1N= 6.10D-01
 OrtVCM:  Ph=2 NNew=    0 IAdd=    4 IPass= 1 DotMx2= 5.55D-17
 OrtVCM:  IS=    1 I=    4 IndO=    4 Dot= 1.00D+00 DotN= 1.00D+00 ElMax1= 5.61D-01 ElMax1N= 5.61D-01
 OrtVCM:  Ph=2 NNew=    0 IAdd=    5 IPass= 1 DotMx2= 1.65D-16
 OrtVCM:  IS=    1 I=    5 IndO=    5 Dot= 1.00D+00 DotN= 1.00D+00 ElMax1= 6.63D-01 ElMax1N= 6.63D-01
 OrtVCM:  Ph=2 NNew=    0 IAdd=    6 IPass= 1 DotMx2= 8.37D-17
 OrtVCM:  IS=    1 I=    6 IndO=    6 Dot= 1.00D+00 DotN= 1.00D+00 ElMax1= 6.10D-01 ElMax1N= 6.10D-01
 OrtVCM:  Ph=1 IPass= 1 DotMx1= 6.63D-01
 OrtVCM:  Ph=1 IPass= 2 DotMx1= 2.41D-16
 OrtVCM:  IS=    1 I=    1 IndO=    7 Dot= 6.09D-01 DotN= 6.09D-01 ElMax1= 6.09D-01 ElMax1N= 6.09D-01
 OrtVCM:  Ph=2 NNew=    0 IAdd=    2 IPass= 1 DotMx2= 1.08D-01
 OrtVCM:  Ph=2 NNew=    0 IAdd=    2 IPass= 2 DotMx2= 2.44D-17
 OrtVCM:  IS=    1 I=    2 IndO=    8 Dot= 2.44D-01 DotN= 2.44D-01 ElMax1= 3.41D-01 ElMax1N= 3.41D-01
 OrtVCM:  Ph=2 NNew=    0 IAdd=    3 IPass= 1 DotMx2= 2.35D-08
 OrtVCM:  Ph=2 NNew=    0 IAdd=    3 IPass= 2 DotMx2= 7.60D-24
 OrtVCM:  IS=    1 I=    3 IndO=    9 Dot= 8.36D-02 DotN= 8.36D-02 ElMax1= 1.70D-01 ElMax1N= 1.70D-01
 OrtVCM:  Ph=2 NNew=    0 IAdd=    4 IPass= 1 DotMx2= 4.26D-01
 OrtVCM:  Ph=2 NNew=    0 IAdd=    4 IPass= 2 DotMx2= 4.14D-17
 OrtVCM:  IS=    1 I=    4 IndO=   10 Dot= 5.00D-01 DotN= 5.00D-01 ElMax1= 5.00D-01 ElMax1N= 5.00D-01
 OrtVCM:  Ph=2 NNew=    0 IAdd=    5 IPass= 1 DotMx2= 1.56D-01
 OrtVCM:  Ph=2 NNew=    0 IAdd=    5 IPass= 2 DotMx2= 3.00D-17
 OrtVCM:  IS=    1 I=    5 IndO=   11 Dot= 3.16D-01 DotN= 3.16D-01 ElMax1= 3.16D-01 ElMax1N= 3.16D-01
 OrtVCM:  Ph=2 NNew=    0 IAdd=    6 IPass= 1 DotMx2= 1.03D-01
 OrtVCM:  Ph=2 NNew=    0 IAdd=    6 IPass= 2 DotMx2= 6.94D-17
 OrtVCM:  IS=    1 I=    6 IndO=   12 Dot= 2.40D-01 DotN= 2.40D-01 ElMax1= 3.15D-01 ElMax1N= 3.15D-01
 OrtVCM:  Ph=2 NNew=    0 IAdd=    7 IPass= 1 DotMx2= 5.56D-01
 OrtVCM:  Ph=2 NNew=    0 IAdd=    7 IPass= 2 DotMx2= 7.87D-17
 OrtVCM:  IS=    1 I=    7 IndO=   13 Dot= 2.00D-01 DotN= 2.00D-01 ElMax1= 2.45D-01 ElMax1N= 2.45D-01
 OrtVCM:  Ph=2 NNew=    0 IAdd=    8 IPass= 1 DotMx2= 6.89D-01
 OrtVCM:  Ph=2 NNew=    0 IAdd=    8 IPass= 2 DotMx2= 1.77D-16
 OrtVCM:  IS=    1 I=    8 IndO=   14 Dot= 1.33D-01 DotN= 1.33D-01 ElMax1= 2.55D-01 ElMax1N= 2.55D-01
 OrtVCM:  Ph=2 NNew=    0 IAdd=    9 IPass= 1 DotMx2= 5.75D-01
 OrtVCM:  Ph=2 NNew=    0 IAdd=    9 IPass= 2 DotMx2= 9.71D-17
 OrtVCM:  IS=    1 I=    9 IndO=   15 Dot= 7.75D-02 DotN= 7.75D-02 ElMax1= 2.12D-01 ElMax1N= 2.12D-01
 OrtVCM:  Ph=2 NNew=    0 IAdd=   10 IPass= 1 DotMx2= 5.20D-01
 OrtVCM:  Ph=2 NNew=    0 IAdd=   10 IPass= 2 DotMx2= 3.17D-17
 OrtVCM:  IS=    1 I=   10 IndO=   16 Dot= 6.60D-01 DotN= 6.60D-01 ElMax1= 6.60D-01 ElMax1N= 6.60D-01
 OrtVCM:  Ph=2 NNew=    0 IAdd=   11 IPass= 1 DotMx2= 5.39D-01
 OrtVCM:  Ph=2 NNew=    0 IAdd=   11 IPass= 2 DotMx2= 8.75D-17
 OrtVCM:  IS=    1 I=   11 IndO=   17 Dot= 5.06D-01 DotN= 5.06D-01 ElMax1= 5.06D-01 ElMax1N= 5.06D-01
 OrtVCM:  Ph=2 NNew=    0 IAdd=   12 IPass= 1 DotMx2= 6.43D-01
 OrtVCM:  Ph=2 NNew=    0 IAdd=   12 IPass= 2 DotMx2= 1.80D-16
 OrtVCM:  IS=    1 I=   12 IndO=    0 Dot= 5.34D-32 DotN= 5.34D-32 ElMax1= 1.82D-16 ElMax1N= 1.82D-16
 SchOr2:  IPass= 1 Test2A= 1.00D-01 IOff=     0 NDo=    12 NNew=    11
 OrtVCM:  Ph=1 IPass= 1 DotMx1= 4.74D-01
 OrtVCM:  Ph=1 IPass= 2 DotMx1= 1.77D-16
 OrtVCM:  IS=    1 I=    1 IndO=   18 Dot= 1.07D-01 DotN= 1.07D-01 ElMax1= 2.05D-01 ElMax1N= 2.05D-01
 SchOr2:  IPass= 1 Test2A= 1.00D-01 IOff=    12 NDo=     1 NNew=     1
 VibFq2-Diag2:  N=     12 IV=           7 MDV=   196594575 NE2=    16382880
 Dipole derivatives wrt mode   1:  6.03625D-06 -1.15099D-06 -5.00516D-01
 Vibrational polarizability contributions from mode   1       0.0000000       0.0000000       0.0335135
 Vibrational hyperpolarizability contributions from mode   1       0.0000000       0.0000000       0.0000000
 Dipole derivatives wrt mode   2:  2.62051D+00 -2.47321D+00 -1.93838D-06
 Vibrational polarizability contributions from mode   2       0.7266533       0.6472603       0.0000000
 Vibrational hyperpolarizability contributions from mode   2       0.0000000       0.0000000       0.0000000
 Dipole derivatives wrt mode   3: -1.06894D-05  5.88491D-06 -6.11121D+00
 Vibrational polarizability contributions from mode   3       0.0000000       0.0000000       1.7657456
 Vibrational hyperpolarizability contributions from mode   3       0.0000000       0.0000000       0.0000000
 Dipole derivatives wrt mode   4:  1.11686D+00  1.36459D+00  4.96679D-06
 Vibrational polarizability contributions from mode   4       0.0353758       0.0528097       0.0000000
 Vibrational hyperpolarizability contributions from mode   4       0.0000000       0.0000000       0.0000000
 Dipole derivatives wrt mode   5: -1.47491D-06 -8.20977D-06  8.51225D-01
 Vibrational polarizability contributions from mode   5       0.0000000       0.0000000       0.0203157
 Vibrational hyperpolarizability contributions from mode   5       0.0000000       0.0000000       0.0000000
 Dipole derivatives wrt mode   6:  3.98507D+00 -2.43699D+00  1.81187D-07
 Vibrational polarizability contributions from mode   6       0.3227162       0.1206858       0.0000000
 Vibrational hyperpolarizability contributions from mode   6       0.0000000       0.0000000       0.0000000
 Dipole derivatives wrt mode   7: -3.28675D+00 -1.58587D+00  1.93137D-06
 Vibrational polarizability contributions from mode   7       0.1491944       0.0347339       0.0000000
 Vibrational hyperpolarizability contributions from mode   7       0.0000000       0.0000000       0.0000000
 Dipole derivatives wrt mode   8: -2.54268D+00  2.70500D+00  1.70964D-06
 Vibrational polarizability contributions from mode   8       0.0806011       0.0912200       0.0000000
 Vibrational hyperpolarizability contributions from mode   8       0.0000000       0.0000000       0.0000000
 Dipole derivatives wrt mode   9: -5.39887D+00 -3.24081D+00  3.74737D-06
 Vibrational polarizability contributions from mode   9       0.3254898       0.1172839       0.0000000
 Vibrational hyperpolarizability contributions from mode   9       0.0000000       0.0000000       0.0000000
 Dipole derivatives wrt mode  10: -9.69987D-01  1.00888D+01 -2.73176D-06
 Vibrational polarizability contributions from mode  10       0.0029521       0.3193581       0.0000000
 Vibrational hyperpolarizability contributions from mode  10       0.0000000       0.0000000       0.0000000
 Dipole derivatives wrt mode  11: -1.48358D+00 -5.06351D-01 -1.61988D-06
 Vibrational polarizability contributions from mode  11       0.0059987       0.0006988       0.0000000
 Vibrational hyperpolarizability contributions from mode  11       0.0000000       0.0000000       0.0000000
 Dipole derivatives wrt mode  12:  1.14418D+00  1.76214D+00 -1.43986D-07
 Vibrational polarizability contributions from mode  12       0.0033179       0.0078695       0.0000000
 Vibrational hyperpolarizability contributions from mode  12       0.0000000       0.0000000       0.0000000
 Diagonal vibrational polarizability:
        1.6522993       1.3919200       1.8195748
 NorSel:  MapVib=      1      2      3      4      5      6      7      8      9     10
 NorSel:  MapVib=     11     12
 Harmonic frequencies (cm**-1), IR intensities (KM/Mole), Raman scattering
 activities (A**4/AMU), depolarization ratios for plane and unpolarized
 incident light, reduced masses (AMU), force constants (mDyne/A),
 and normal coordinates:
                      1                      2                      3
                      A                      A                      A
 Frequencies --    448.5123               504.2996               754.4484
 Red. masses --      1.2015                 2.3470                 1.2101
 Frc consts  --      0.1424                 0.3517                 0.4058
 IR Inten    --      0.2505                12.9839                37.3469
  Atom  AN      X      Y      Z        X      Y      Z        X      Y      Z
     1   8     0.00   0.00   0.07    -0.18   0.11   0.00     0.00   0.00   0.00
     2   6     0.00   0.00  -0.01     0.16   0.02   0.00     0.00   0.00   0.14
     3   6     0.00   0.00  -0.11     0.01  -0.19   0.00     0.00   0.00   0.00
     4   1     0.00   0.00   0.86    -0.15   0.48   0.00     0.00   0.00  -0.48
     5   1     0.00   0.00  -0.48     0.76   0.07   0.00     0.00   0.00  -0.79
     6   1     0.00   0.00  -0.13     0.19  -0.18   0.00     0.00   0.00  -0.35
                      4                      5                      6
                      A                      A                      A
 Frequencies --    974.1215               979.7032              1150.7799
 Red. masses --      1.8048                 1.6147                 2.6564
 Frc consts  --      1.0090                 0.9131                 2.0727
 IR Inten    --      3.1095                 0.7246                21.8197
  Atom  AN      X      Y      Z        X      Y      Z        X      Y      Z
     1   8    -0.10  -0.01   0.00     0.00   0.00  -0.05    -0.06   0.01   0.00
     2   6     0.22   0.06   0.00     0.00   0.00  -0.10    -0.11   0.20   0.00
     3   6    -0.08   0.00   0.00     0.00   0.00   0.21     0.22  -0.21   0.00
     4   1     0.63  -0.53   0.00     0.00   0.00   0.26     0.04  -0.05   0.00
     5   1    -0.38  -0.01   0.00     0.00   0.00   0.08    -0.81   0.15   0.00
     6   1    -0.32  -0.01   0.00     0.00   0.00  -0.93     0.34  -0.22   0.00
                      7                      8                      9
                      A                      A                      A
 Frequencies --   1395.9084              1469.2248              1552.3908
 Red. masses --      1.2533                 1.3012                 5.4472
 Frc consts  --      1.4389                 1.6549                 7.7344
 IR Inten    --     13.3177                13.7822                39.6507
  Atom  AN      X      Y      Z        X      Y      Z        X      Y      Z
     1   8     0.06   0.08   0.00    -0.02  -0.03   0.00     0.28   0.17   0.00
     2   6     0.02  -0.04   0.00     0.13  -0.05   0.00    -0.02   0.08   0.00
     3   6     0.01  -0.08   0.00    -0.06   0.05   0.00    -0.42  -0.28   0.00
     4   1    -0.22   0.30   0.00    -0.30   0.56   0.00     0.21  -0.25   0.00
     5   1    -0.30  -0.06   0.00    -0.61  -0.12   0.00    -0.13   0.06   0.00
     6   1    -0.86  -0.13   0.00     0.41   0.10   0.00     0.70  -0.15   0.00
                     10                     11                     12
                      A                      A                      A
 Frequencies --   2928.6541              3142.2873              3258.6208
 Red. masses --      1.0838                 1.0517                 1.1200
 Frc consts  --      5.4770                 6.1185                 7.0070
 IR Inten    --    102.7252                 2.4574                 4.4143
  Atom  AN      X      Y      Z        X      Y      Z        X      Y      Z
     1   8     0.00   0.00   0.00     0.00   0.00   0.00     0.00   0.00   0.00
     2   6     0.00   0.00   0.00    -0.06   0.03   0.00     0.04   0.09   0.00
     3   6    -0.01   0.08   0.00     0.00   0.00   0.00     0.00   0.00   0.00
     4   1     0.03   0.03   0.00     0.59   0.41   0.00    -0.57  -0.39   0.00
     5   1     0.00   0.00   0.00     0.06  -0.69   0.00     0.07  -0.71   0.00
     6   1     0.07  -0.99   0.00    -0.01   0.02   0.00     0.00  -0.03   0.00

 -------------------
 - Thermochemistry -
 -------------------
 Temperature   298.150 Kelvin.  Pressure   1.00000 Atm.
 Atom     1 has atomic number  8 and mass  15.99491
 Atom     2 has atomic number  6 and mass  12.00000
 Atom     3 has atomic number  6 and mass  12.00000
 Atom     4 has atomic number  1 and mass   1.00783
 Atom     5 has atomic number  1 and mass   1.00783
 Atom     6 has atomic number  1 and mass   1.00783
 Molecular mass:    43.01839 amu.
 Principal axes and moments of inertia in atomic units:
                           1         2         3
     Eigenvalues --    26.78810 157.55912 184.34722
           X            0.99971  -0.02408   0.00000
           Y            0.02408   0.99971   0.00000
           Z            0.00000   0.00000   1.00000
 This molecule is an asymmetric top.
 Rotational symmetry number  1.
 Rotational temperatures (Kelvin)      3.23329     0.54972     0.46984
 Rotational constants (GHZ):          67.37100    11.45437     9.78990
 Zero-point vibrational energy     111007.2 (Joules/Mol)
                                   26.53135 (Kcal/Mol)
 Warning -- explicit consideration of   2 degrees of freedom as
           vibrations may cause significant error
 Vibrational temperatures:    645.31   725.57  1085.48  1401.54  1409.57
          (Kelvin)           1655.71  2008.40  2113.88  2233.54  4213.67
                             4521.04  4688.42
 
 Zero-point correction=                           0.042280 (Hartree/Particle)
 Thermal correction to Energy=                    0.045810
 Thermal correction to Enthalpy=                  0.046754
 Thermal correction to Gibbs Free Energy=         0.017365
 Sum of electronic and zero-point Energies=           -153.174584
 Sum of electronic and thermal Energies=              -153.171055
 Sum of electronic and thermal Enthalpies=            -153.170111
 Sum of electronic and thermal Free Energies=         -153.199500
 
                     E (Thermal)             CV                S
                      KCal/Mol        Cal/Mol-Kelvin    Cal/Mol-Kelvin
 Total                   28.746             10.594             61.854
 Electronic               0.000              0.000              1.377
 Translational            0.889              2.981             37.204
 Rotational               0.889              2.981             21.281
 Vibrational             26.969              4.633              1.993
 Vibration     1          0.808              1.364              0.800
 Vibration     2          0.860              1.240              0.647
                       Q            Log10(Q)             Ln(Q)
 Total Bot       0.102979D-07         -7.987251        -18.391326
 Total V=0       0.288630D+12         11.460342         26.388412
 Vib (Bot)       0.464970D-19        -19.332575        -44.514900
 Vib (Bot)    1  0.382808D+00         -0.417019         -0.960221
 Vib (Bot)    2  0.324658D+00         -0.488574         -1.124983
 Vib (V=0)       0.130322D+01          0.115018          0.264838
 Vib (V=0)    1  0.112972D+01          0.052969          0.121966
 Vib (V=0)    2  0.109616D+01          0.039873          0.091810
 Electronic      0.200000D+01          0.301030          0.693147
 Translational   0.110901D+08          7.044936         16.221566
 Rotational      0.998522D+04          3.999357          9.208861
 
                                                                 name
                                                             IR Spectrum
 
     3    3       2                                                     1  1  1         1                                            
     2    1       9                                                     5  4  3         1     99       7         5 4                 
     5    4       2                                                     5  6  9         5     87       5         0 4                 
     9    2       9                                                     2  9  6         1     04       4         4 9                 
 
     X    X       X                                                     X  X  X         X     XX       X         X X                 
                  X                                                     X  X  X         X              X         X                   
                  X                                                     X  X  X         X              X         X                   
                  X                                                     X               X              X                             
                  X                                                     X                              X                             
                  X                                                     X                              X                             
                  X                                                     X                              X                             
                  X                                                     X                                                            
                  X                                                                                                                  
                  X                                                                                                                  
                  X                                                                                                                  
                  X                                                                                                                  
                  X                                                                                                                  
                  X                                                                                                                  
                  X                                                                                                                  
                  X                                                                                                                  
                  X                                                                                                                  
                  X                                                                                                                  
                  X                                                                                                                  
                  X                                                                                                                  
 
 Forces in standard orientation:
 -------------------------------------------------------------------
 Center     Atomic                   Forces (Hartrees/Bohr)
 Number     Number              X              Y              Z
 -------------------------------------------------------------------
      1        8          -0.000278160   -0.000256339   -0.000000002
      2        6           0.000624040    0.000049283    0.000000038
      3        6          -0.000122050    0.000052186    0.000000016
      4        1          -0.000301721   -0.000187599   -0.000000008
      5        1          -0.000172493    0.000317064   -0.000000025
      6        1           0.000250384    0.000025406   -0.000000019
 -------------------------------------------------------------------
 ***** Axes restored to original set *****
 Rotating derivatives, DoTrsp=F IDiff=-2 LEDeriv=    916 LFDPrp=       0 LDFDPr=       0.
 -------------------------------------------------------------------
 Center     Atomic                   Forces (Hartrees/Bohr)
 Number     Number              X              Y              Z
 -------------------------------------------------------------------
      1        8           0.000361115    0.000033270   -0.000107573
      2        6          -0.000502904   -0.000366049   -0.000070358
      3        6           0.000062240    0.000105842    0.000050431
      4        1           0.000338848    0.000086218   -0.000063064
      5        1          -0.000054217    0.000284450    0.000215482
      6        1          -0.000205082   -0.000143730   -0.000024918
 -------------------------------------------------------------------
 Cartesian Forces:  Max     0.000502904 RMS     0.000220152
 Z-matrix is all fixed cartesians, so copy forces.
 Force constants in Cartesian coordinates: 
                1             2             3             4             5 
      1  0.611271D+00
      2  0.143512D+00  0.950953D-01
      3 -0.114695D+00 -0.340288D-03  0.615108D-01
      4 -0.752332D-01 -0.570485D-01 -0.581160D-02  0.600013D+00
      5 -0.844023D-01 -0.124838D-01  0.989597D-02  0.632266D-01  0.433513D+00
      6 -0.246523D-01  0.118901D-04  0.263434D-01 -0.145455D+00  0.222746D+00
      7 -0.492835D+00 -0.979521D-01  0.923312D-01 -0.837295D-01  0.639822D-02
      8 -0.568188D-01 -0.100196D+00 -0.136299D-01 -0.460424D-01 -0.199744D+00
      9  0.120663D+00  0.123336D-02 -0.933506D-01 -0.240241D-01 -0.968767D-01
     10 -0.130455D-02 -0.432468D-02 -0.175953D-02 -0.318817D+00 -0.615862D-01
     11 -0.415893D-02 -0.484866D-02 -0.326234D-02 -0.577959D-01 -0.596319D-01
     12 -0.164536D-02 -0.320244D-02  0.458346D-03  0.677902D-01 -0.432621D-02
     13  0.748413D-03  0.239251D-02 -0.119042D-03 -0.132507D+00  0.874204D-01
     14  0.209157D-03  0.229191D-02  0.435567D-02  0.846862D-01 -0.152375D+00
     15 -0.162292D-02  0.356672D-02 -0.109845D-02  0.971728D-01 -0.119314D+00
     16 -0.426461D-01  0.134211D-01  0.300535D-01  0.102738D-01 -0.110567D-01
     17  0.165921D-02  0.201411D-01  0.298084D-02  0.129740D-01 -0.927797D-02
     18  0.219521D-01 -0.126924D-02  0.613645D-02  0.103279D-01 -0.121245D-01
                6             7             8             9            10 
      6  0.282933D+00
      7  0.120958D-01  0.670186D+00
      8 -0.779277D-01  0.403385D-01  0.448563D+00
      9 -0.120496D+00 -0.160123D+00  0.190957D+00  0.339547D+00
     10  0.651796D-01 -0.552841D-02  0.486301D-02  0.793671D-02  0.331618D+00
     11 -0.569579D-02 -0.220363D-01  0.673332D-02  0.766434D-02  0.666427D-01
     12 -0.485172D-01 -0.105909D-01 -0.205552D-02  0.957757D-02 -0.701873D-01
     13  0.990560D-01  0.108726D-01 -0.956436D-02 -0.773698D-02 -0.613547D-02
     14 -0.118326D+00  0.167297D-01 -0.955085D-02 -0.179218D-01 -0.548327D-02
     15 -0.142305D+00  0.103739D-01 -0.842056D-02 -0.185630D-02  0.127716D-03
     16 -0.622391D-02 -0.989659D-01  0.672240D-01  0.632843D-01  0.167833D-03
     17 -0.208078D-01  0.565220D-01 -0.145805D+00 -0.850560D-01 -0.111484D-03
     18  0.204242D-02  0.559130D-01 -0.889231D-01 -0.133421D+00 -0.129720D-02
               11            12            13            14            15 
     11  0.508224D-01
     12  0.379874D-02  0.383237D-01
     13  0.156927D-01  0.147133D-01  0.127556D+00
     14  0.772995D-02  0.408896D-02 -0.929085D-01  0.154006D+00
     15 -0.356281D-02  0.216987D-02 -0.105392D+00  0.130703D+00  0.141095D+00
     16  0.165583D-02 -0.799139D-04 -0.534517D-03 -0.323325D-02 -0.659291D-03
     17 -0.805090D-03  0.169647D-02 -0.303271D-02 -0.210186D-02 -0.297201D-02
     18  0.105787D-02 -0.201225D-02 -0.521159D-03 -0.289955D-02  0.199521D-02
               16            17            18 
     16  0.131705D+00
     17 -0.680110D-01  0.137849D+00
     18 -0.863747D-01  0.104159D+00  0.125259D+00
 Final forces over variables, Energy=-1.53216865D+02:
  3.61114917D-04-5.02904166D-04 6.22402809D-05 3.38848086D-04
 -5.42174219D-05-2.05081695D-04 3.32696411D-05-3.66048807D-04
  1.05841629D-04 8.62183238D-05 2.84449620D-04-1.43730407D-04
 -1.07572839D-04-7.03577944D-05 5.04314565D-05-6.30644077D-05
  2.15481589D-04-2.49180047D-05
 Leave Link  716 at Sat Feb 16 14:13:30 2019, MaxMem=   196608000 cpu:         2.7
 (Enter /cm/shared/c3ddb/gaussian/09.d01/g09/l103.exe)

 GradGradGradGradGradGradGradGradGradGradGradGradGradGradGradGradGradGrad
 Berny optimization.
 Search for a local minimum.
 Step number   1 out of a maximum of    2
 All quantities printed in internal units (Hartrees-Bohrs-Radians)
 Second derivative matrix not updated -- analytic derivatives used.
 The second derivative matrix:
                          X1        Y1        Z1        X2        Y2
           X1           0.61127
           Y1           0.14351   0.09510
           Z1          -0.11469  -0.00034   0.06151
           X2          -0.07523  -0.05705  -0.00581   0.60001
           Y2          -0.08440  -0.01248   0.00990   0.06323   0.43351
           Z2          -0.02465   0.00001   0.02634  -0.14546   0.22275
           X3          -0.49284  -0.09795   0.09233  -0.08373   0.00640
           Y3          -0.05682  -0.10020  -0.01363  -0.04604  -0.19974
           Z3           0.12066   0.00123  -0.09335  -0.02402  -0.09688
           X4          -0.00130  -0.00432  -0.00176  -0.31882  -0.06159
           Y4          -0.00416  -0.00485  -0.00326  -0.05780  -0.05963
           Z4          -0.00165  -0.00320   0.00046   0.06779  -0.00433
           X5           0.00075   0.00239  -0.00012  -0.13251   0.08742
           Y5           0.00021   0.00229   0.00436   0.08469  -0.15238
           Z5          -0.00162   0.00357  -0.00110   0.09717  -0.11931
           X6          -0.04265   0.01342   0.03005   0.01027  -0.01106
           Y6           0.00166   0.02014   0.00298   0.01297  -0.00928
           Z6           0.02195  -0.00127   0.00614   0.01033  -0.01212
                          Z2        X3        Y3        Z3        X4
           Z2           0.28293
           X3           0.01210   0.67019
           Y3          -0.07793   0.04034   0.44856
           Z3          -0.12050  -0.16012   0.19096   0.33955
           X4           0.06518  -0.00553   0.00486   0.00794   0.33162
           Y4          -0.00570  -0.02204   0.00673   0.00766   0.06664
           Z4          -0.04852  -0.01059  -0.00206   0.00958  -0.07019
           X5           0.09906   0.01087  -0.00956  -0.00774  -0.00614
           Y5          -0.11833   0.01673  -0.00955  -0.01792  -0.00548
           Z5          -0.14231   0.01037  -0.00842  -0.00186   0.00013
           X6          -0.00622  -0.09897   0.06722   0.06328   0.00017
           Y6          -0.02081   0.05652  -0.14581  -0.08506  -0.00011
           Z6           0.00204   0.05591  -0.08892  -0.13342  -0.00130
                          Y4        Z4        X5        Y5        Z5
           Y4           0.05082
           Z4           0.00380   0.03832
           X5           0.01569   0.01471   0.12756
           Y5           0.00773   0.00409  -0.09291   0.15401
           Z5          -0.00356   0.00217  -0.10539   0.13070   0.14110
           X6           0.00166  -0.00008  -0.00053  -0.00323  -0.00066
           Y6          -0.00081   0.00170  -0.00303  -0.00210  -0.00297
           Z6           0.00106  -0.00201  -0.00052  -0.00290   0.00200
                          X6        Y6        Z6
           X6           0.13170
           Y6          -0.06801   0.13785
           Z6          -0.08637   0.10416   0.12526
 ITU=  0
     Eigenvalues ---    0.01174   0.02516   0.05044   0.07191   0.13289
     Eigenvalues ---    0.16635   0.19886   0.28494   0.57092   0.86459
     Eigenvalues ---    0.92880   1.25629
 Angle between quadratic step and forces=  52.09 degrees.
 Linear search not attempted -- first point.
 TrRot=  0.000308 -0.000586 -0.000525  0.000056 -0.000095  0.000056
 MatCor failed.
 Variable       Old X    -DE/DX   Delta X   Delta X   Delta X     New X
                                 (Linear)    (Quad)   (Total)
    X1        1.86394   0.00036   0.00000   0.00066   0.00096   1.86490
    Y1       -0.29116   0.00003   0.00000  -0.00022  -0.00060  -0.29176
    Z1        0.49235  -0.00011   0.00000  -0.00039  -0.00074   0.49161
    X2        5.32038  -0.00050   0.00000  -0.00070  -0.00076   5.31961
    Y2        2.39436  -0.00037   0.00000   0.00002   0.00003   2.39439
    Z2        1.09313  -0.00007   0.00000   0.00027   0.00025   1.09337
    X3        4.08958   0.00006   0.00000   0.00031   0.00059   4.09017
    Y3        0.23826   0.00011   0.00000   0.00000  -0.00013   0.23813
    Z3        0.05279   0.00005   0.00000  -0.00011  -0.00025   0.05254
    X4        7.27981   0.00034   0.00000   0.00031   0.00023   7.28004
    Y4        2.81054   0.00009   0.00000   0.00034   0.00057   2.81111
    Z4        0.67176  -0.00006   0.00000   0.00012   0.00029   0.67204
    X5        4.26490  -0.00005   0.00000   0.00073   0.00041   4.26531
    Y5        3.63718   0.00028   0.00000   0.00190   0.00179   3.63897
    Z5        2.33054   0.00022   0.00000   0.00104   0.00092   2.33146
    X6        5.24002  -0.00021   0.00000  -0.00196  -0.00143   5.23860
    Y6       -0.97829  -0.00014   0.00000  -0.00166  -0.00166  -0.97995
    Z6       -1.20085  -0.00002   0.00000  -0.00044  -0.00047  -1.20132
         Item               Value     Threshold  Converged?
 Maximum Force            0.000503     0.000450     NO 
 RMS     Force            0.000220     0.000300     YES
 Maximum Displacement     0.001792     0.001800     YES
 RMS     Displacement     0.000837     0.001200     YES
 Predicted change in Energy=-1.051820D-06
 GradGradGradGradGradGradGradGradGradGradGradGradGradGradGradGradGradGrad

 Leave Link  103 at Sat Feb 16 14:13:31 2019, MaxMem=   196608000 cpu:         9.3
 (Enter /cm/shared/c3ddb/gaussian/09.d01/g09/l9999.exe)

 Test job not archived.
 1\1\GINC-NODE004\Freq\UB3LYP\6-311G(2d,d,p)\C2H3O1(2)\DUMINDA\16-Feb-2
 019\0\\#P ub3lyp/cbsb7 freq iop(7/33=1) scf=xqc\\name\\0,2\O,0.986356,
 -0.154077,0.26054\C,2.815422,1.267042,0.578457\C,2.164114002,0.1260839
 961,0.0279350057\H,3.852308,1.487275,0.355478\H,2.256889,1.924714,1.23
 327\H,2.772901,-0.517689,-0.635462\\Version=AS64L-G09RevD.01\State=2-A
 \HF=-153.2168646\S2=0.768206\S2-1=0.\S2A=0.750086\RMSD=5.721e-09\RMSF=
 2.202e-04\ZeroPoint=0.0422804\Thermal=0.0458096\Dipole=1.0041603,0.475
 0847,-0.0356172\DipoleDeriv=-0.6785529,-0.1252892,0.0395164,-0.0951277
 ,-0.4605324,-0.0552792,0.0602912,-0.0443806,-0.3827244,0.1808497,0.002
 9983,-0.1260059,0.0109693,-0.1932938,-0.0175413,-0.1205152,-0.0146606,
 -0.1401316,0.5720464,0.0383711,-0.1184938,0.0068644,0.5908793,0.286739
 ,-0.1401952,0.2753543,0.4112935,-0.0440327,-0.0415065,0.0289807,-0.000
 2201,0.0723594,-0.0294891,0.0574177,-0.0145707,0.0845049,0.0273707,0.0
 310353,0.0617996,-0.0106995,0.0475185,-0.0593094,0.0330535,-0.0743902,
 0.0760577,-0.0576812,0.094391,0.114203,0.0882136,-0.056931,-0.1251201,
 0.1099481,-0.1273522,-0.0490002\Polar=30.1930183,6.2149105,25.5682962,
 -1.8017668,6.1630616,18.2560961\PG=C01 [X(C2H3O1)]\NImag=0\\0.61127069
 ,0.14351161,0.09509525,-0.11469459,-0.00034029,0.06151080,-0.07523315,
 -0.05704849,-0.00581160,0.60001276,-0.08440228,-0.01248380,0.00989597,
 0.06322663,0.43351305,-0.02465226,0.00001189,0.02634344,-0.14545524,0.
 22274580,0.28293318,-0.49283531,-0.09795209,0.09233124,-0.08372945,0.0
 0639822,0.01209582,0.67018643,-0.05681877,-0.10019579,-0.01362986,-0.0
 4604239,-0.19974410,-0.07792774,0.04033850,0.44856267,0.12066299,0.001
 23336,-0.09335059,-0.02402405,-0.09687669,-0.12049635,-0.16012300,0.19
 095678,0.33954679,-0.00130455,-0.00432468,-0.00175953,-0.31881729,-0.0
 6158623,0.06517956,-0.00552841,0.00486301,0.00793671,0.33161790,-0.004
 15893,-0.00484866,-0.00326234,-0.05779594,-0.05963187,-0.00569579,-0.0
 2203630,0.00673332,0.00766434,0.06664265,0.05082235,-0.00164536,-0.003
 20244,0.00045835,0.06779020,-0.00432621,-0.04851724,-0.01059095,-0.002
 05552,0.00957757,-0.07018726,0.00379874,0.03832370,0.00074841,0.002392
 51,-0.00011904,-0.13250669,0.08742041,0.09905602,0.01087261,-0.0095643
 6,-0.00773698,-0.00613547,0.01569269,0.01471329,0.12755565,0.00020916,
 0.00229191,0.00435567,0.08468622,-0.15237530,-0.11832637,0.01672969,-0
 .00955085,-0.01792176,-0.00548327,0.00772995,0.00408896,-0.09290854,0.
 15400615,-0.00162292,0.00356672,-0.00109845,0.09717277,-0.11931440,-0.
 14230545,0.01037386,-0.00842056,-0.00185630,0.00012772,-0.00356281,0.0
 0216987,-0.10539213,0.13070304,0.14109512,-0.04264608,0.01342114,0.030
 05352,0.01027383,-0.01105675,-0.00622391,-0.09896587,0.06722401,0.0632
 8433,0.00016783,0.00165583,-0.00007991,-0.00053452,-0.00323325,-0.0006
 5929,0.13170481,0.00165921,0.02014108,0.00298084,0.01297398,-0.0092779
 7,-0.02080779,0.05652199,-0.14580525,-0.08505602,-0.00011148,-0.000805
 09,0.00169647,-0.00303271,-0.00210186,-0.00297201,-0.06801098,0.137849
 09,0.02195215,-0.00126924,0.00613645,0.01032792,-0.01212448,0.00204242
 ,0.05591304,-0.08892311,-0.13342113,-0.00129720,0.00105787,-0.00201225
 ,-0.00052116,-0.00289955,0.00199521,-0.08637474,0.10415852,0.12525929\
 \-0.00036111,-0.00003327,0.00010757,0.00050290,0.00036605,0.00007036,-
 0.00006224,-0.00010584,-0.00005043,-0.00033885,-0.00008622,0.00006306,
 0.00005422,-0.00028445,-0.00021548,0.00020508,0.00014373,0.00002492\\\
 @


 AND THIS OUR LIFE, EXEMPT FROM PUBLIC HAUNT,
 FINDS TONGUES IN TREES, BOOKS IN THE RUNNING BROOKS,
 SERMONS IN STONES, AND GOOD IN EVERYTHING.
 I WOULD NOT CHANGE IT. -- W. SHAKESPEARE
 AS YOU LIKE IT, ACT II, SCENE 1.
 Job cpu time:       0 days  0 hours  5 minutes 37.9 seconds.
 File lengths (MBytes):  RWF=     11 Int=      0 D2E=      0 Chk=      1 Scr=      1
 Normal termination of Gaussian 09 at Sat Feb 16 14:13:31 2019.
