 Entering Gaussian System, Link 0=g09
 Initial command:
 /cm/shared/c3ddb/gaussian/09.d01/g09/l1.exe "/scratch/users/duminda/g09/a1663-7322554/Gau-36137.inp" -scrdir="/scratch/users/duminda/g09/a1663-7322554/"
 Entering Link 1 = /cm/shared/c3ddb/gaussian/09.d01/g09/l1.exe PID=     36138.
  
 Copyright (c) 1988,1990,1992,1993,1995,1998,2003,2009,2013,
            Gaussian, Inc.  All Rights Reserved.
  
 This is part of the Gaussian(R) 09 program.  It is based on
 the Gaussian(R) 03 system (copyright 2003, Gaussian, Inc.),
 the Gaussian(R) 98 system (copyright 1998, Gaussian, Inc.),
 the Gaussian(R) 94 system (copyright 1995, Gaussian, Inc.),
 the Gaussian 92(TM) system (copyright 1992, Gaussian, Inc.),
 the Gaussian 90(TM) system (copyright 1990, Gaussian, Inc.),
 the Gaussian 88(TM) system (copyright 1988, Gaussian, Inc.),
 the Gaussian 86(TM) system (copyright 1986, Carnegie Mellon
 University), and the Gaussian 82(TM) system (copyright 1983,
 Carnegie Mellon University). Gaussian is a federally registered
 trademark of Gaussian, Inc.
  
 This software contains proprietary and confidential information,
 including trade secrets, belonging to Gaussian, Inc.
  
 This software is provided under written license and may be
 used, copied, transmitted, or stored only in accord with that
 written license.
  
 The following legend is applicable only to US Government
 contracts under FAR:
  
                    RESTRICTED RIGHTS LEGEND
  
 Use, reproduction and disclosure by the US Government is
 subject to restrictions as set forth in subparagraphs (a)
 and (c) of the Commercial Computer Software - Restricted
 Rights clause in FAR 52.227-19.
  
 Gaussian, Inc.
 340 Quinnipiac St., Bldg. 40, Wallingford CT 06492
  
  
 ---------------------------------------------------------------
 Warning -- This program may not be used in any manner that
 competes with the business of Gaussian, Inc. or will provide
 assistance to any competitor of Gaussian, Inc.  The licensee
 of this program is prohibited from giving any competitor of
 Gaussian, Inc. access to this program.  By using this program,
 the user acknowledges that Gaussian, Inc. is engaged in the
 business of creating and licensing software in the field of
 computational chemistry and represents and warrants to the
 licensee that it is not a competitor of Gaussian, Inc. and that
 it will not use this program in any manner prohibited above.
 ---------------------------------------------------------------
  

 Cite this work as:
 Gaussian 09, Revision D.01,
 M. J. Frisch, G. W. Trucks, H. B. Schlegel, G. E. Scuseria, 
 M. A. Robb, J. R. Cheeseman, G. Scalmani, V. Barone, B. Mennucci, 
 G. A. Petersson, H. Nakatsuji, M. Caricato, X. Li, H. P. Hratchian, 
 A. F. Izmaylov, J. Bloino, G. Zheng, J. L. Sonnenberg, M. Hada, 
 M. Ehara, K. Toyota, R. Fukuda, J. Hasegawa, M. Ishida, T. Nakajima, 
 Y. Honda, O. Kitao, H. Nakai, T. Vreven, J. A. Montgomery, Jr., 
 J. E. Peralta, F. Ogliaro, M. Bearpark, J. J. Heyd, E. Brothers, 
 K. N. Kudin, V. N. Staroverov, T. Keith, R. Kobayashi, J. Normand, 
 K. Raghavachari, A. Rendell, J. C. Burant, S. S. Iyengar, J. Tomasi, 
 M. Cossi, N. Rega, J. M. Millam, M. Klene, J. E. Knox, J. B. Cross, 
 V. Bakken, C. Adamo, J. Jaramillo, R. Gomperts, R. E. Stratmann, 
 O. Yazyev, A. J. Austin, R. Cammi, C. Pomelli, J. W. Ochterski, 
 R. L. Martin, K. Morokuma, V. G. Zakrzewski, G. A. Voth, 
 P. Salvador, J. J. Dannenberg, S. Dapprich, A. D. Daniels, 
 O. Farkas, J. B. Foresman, J. V. Ortiz, J. Cioslowski, 
 and D. J. Fox, Gaussian, Inc., Wallingford CT, 2013.
 
 ******************************************
 Gaussian 09:  AS64L-G09RevD.01 24-Apr-2013
                16-Feb-2019 
 ******************************************
 %chk=check.chk
 %mem=1500mb
 %nproc=8
 Will use up to    8 processors via shared memory.
 ---------------------------------------
 #P b3lyp/cbsb7 freq iop(7/33=1) scf=xqc
 ---------------------------------------
 1/10=4,30=1,38=1/1,3;
 2/12=2,17=6,18=5,40=1/2;
 3/5=4,6=6,7=700,11=2,16=1,25=1,30=1,71=2,74=-5,140=1/1,2,3;
 4//1;
 5/5=2,8=3,13=1,38=5,98=1/2,8;
 8/6=4,10=90,11=11/1;
 11/6=1,8=1,9=11,15=111,16=1/1,2,10;
 10/6=1/2;
 6/7=2,8=2,9=2,10=2,18=1,28=1/1;
 7/8=1,10=1,25=1,33=1/1,2,3,16;
 1/10=4,30=1/3;
 99//99;
 Leave Link    1 at Sat Feb 16 13:26:16 2019, MaxMem=   196608000 cpu:         0.7
 (Enter /cm/shared/c3ddb/gaussian/09.d01/g09/l101.exe)
 ----
 name
 ----
 Symbolic Z-matrix:
 Charge =  0 Multiplicity = 1
 H                     1.19805   0.01874   0.06873 
 H                     1.94231   0.01874   0.06873 
 
 NAtoms=      2 NQM=        2 NQMF=       0 NMMI=      0 NMMIF=      0
                NMic=       0 NMicF=      0.
                    Isotopes and Nuclear Properties:
 (Nuclear quadrupole moments (NQMom) in fm**2, nuclear magnetic moments (NMagM)
  in nuclear magnetons)

  Atom         1           2
 IAtWgt=           1           1
 AtmWgt=   1.0078250   1.0078250
 NucSpn=           1           1
 AtZEff=   0.0000000   0.0000000
 NQMom=    0.0000000   0.0000000
 NMagM=    2.7928460   2.7928460
 AtZNuc=   1.0000000   1.0000000
 Leave Link  101 at Sat Feb 16 13:26:16 2019, MaxMem=   196608000 cpu:         0.6
 (Enter /cm/shared/c3ddb/gaussian/09.d01/g09/l103.exe)

 GradGradGradGradGradGradGradGradGradGradGradGradGradGradGradGradGradGrad
 Berny optimization.
 Initialization pass.
 Trust Radius=3.00D-01 FncErr=1.00D-07 GrdErr=1.00D-07
 Number of steps in this run=      2 maximum allowed number of steps=      2.
 GradGradGradGradGradGradGradGradGradGradGradGradGradGradGradGradGradGrad

 Leave Link  103 at Sat Feb 16 13:26:16 2019, MaxMem=   196608000 cpu:         0.2
 (Enter /cm/shared/c3ddb/gaussian/09.d01/g09/l202.exe)
                          Input orientation:                          
 ---------------------------------------------------------------------
 Center     Atomic      Atomic             Coordinates (Angstroms)
 Number     Number       Type             X           Y           Z
 ---------------------------------------------------------------------
      1          1           0        1.198048    0.018743    0.068730
      2          1           0        1.942307    0.018743    0.068730
 ---------------------------------------------------------------------
 Stoichiometry    H2
 Framework group  D*H[C*(H.H)]
 Deg. of freedom     1
 Full point group                 D*H     NOp   8
 Largest Abelian subgroup         D2H     NOp   8
 Largest concise Abelian subgroup C2      NOp   2
                         Standard orientation:                         
 ---------------------------------------------------------------------
 Center     Atomic      Atomic             Coordinates (Angstroms)
 Number     Number       Type             X           Y           Z
 ---------------------------------------------------------------------
      1          1           0        0.000000    0.000000    0.372130
      2          1           0        0.000000    0.000000   -0.372130
 ---------------------------------------------------------------------
 Rotational constants (GHZ):      0.0000000   1810.5639060   1810.5639060
 Leave Link  202 at Sat Feb 16 13:26:16 2019, MaxMem=   196608000 cpu:         0.3
 (Enter /cm/shared/c3ddb/gaussian/09.d01/g09/l301.exe)
 Standard basis: 6-311G(2d,d,p) (5D, 7F)
 Ernie: Thresh=  0.10000D-02 Tol=  0.10000D-05 Strict=F.
 There are     4 symmetry adapted cartesian basis functions of AG  symmetry.
 There are     0 symmetry adapted cartesian basis functions of B1G symmetry.
 There are     1 symmetry adapted cartesian basis functions of B2G symmetry.
 There are     1 symmetry adapted cartesian basis functions of B3G symmetry.
 There are     0 symmetry adapted cartesian basis functions of AU  symmetry.
 There are     4 symmetry adapted cartesian basis functions of B1U symmetry.
 There are     1 symmetry adapted cartesian basis functions of B2U symmetry.
 There are     1 symmetry adapted cartesian basis functions of B3U symmetry.
 There are     4 symmetry adapted basis functions of AG  symmetry.
 There are     0 symmetry adapted basis functions of B1G symmetry.
 There are     1 symmetry adapted basis functions of B2G symmetry.
 There are     1 symmetry adapted basis functions of B3G symmetry.
 There are     0 symmetry adapted basis functions of AU  symmetry.
 There are     4 symmetry adapted basis functions of B1U symmetry.
 There are     1 symmetry adapted basis functions of B2U symmetry.
 There are     1 symmetry adapted basis functions of B3U symmetry.
    12 basis functions,    16 primitive gaussians,    12 cartesian basis functions
     1 alpha electrons        1 beta electrons
       nuclear repulsion energy         0.7110121726 Hartrees.
 IExCor=  402 DFT=T Ex+Corr=B3LYP ExCW=0 ScaHFX=  0.200000
 ScaDFX=  0.800000  0.720000  1.000000  0.810000 ScalE2=  1.000000  1.000000
 IRadAn=      0 IRanWt=     -1 IRanGd=            0 ICorTp=0 IEmpDi=  4
 NAtoms=    2 NActive=    2 NUniq=    1 SFac= 4.00D+00 NAtFMM=   60 NAOKFM=F Big=F
 Integral buffers will be    131072 words long.
 Raffenetti 2 integral format.
 Two-electron integral symmetry is turned on.
 Leave Link  301 at Sat Feb 16 13:26:16 2019, MaxMem=   196608000 cpu:         0.4
 (Enter /cm/shared/c3ddb/gaussian/09.d01/g09/l302.exe)
 NPDir=0 NMtPBC=     1 NCelOv=     1 NCel=       1 NClECP=     1 NCelD=      1
         NCelK=      1 NCelE2=     1 NClLst=     1 CellRange=     0.0.
 One-electron integrals computed using PRISM.
 One-electron integral symmetry used in STVInt
 NBasis=    12 RedAO= T EigKep=  2.36D-02  NBF=     4     0     1     1     0     4     1     1
 NBsUse=    12 1.00D-06 EigRej= -1.00D+00 NBFU=     4     0     1     1     0     4     1     1
 Precomputing XC quadrature grid using
 IXCGrd= 4 IRadAn=           0 IRanWt=          -1 IRanGd=           0 AccXCQ= 0.00D+00.
 Generated NRdTot=       0 NPtTot=           0 NUsed=           0 NTot=          32
 NSgBfM=    12    12    12    12    12 MxSgAt=     2 MxSgA2=     2.
 Leave Link  302 at Sat Feb 16 13:26:17 2019, MaxMem=   196608000 cpu:         3.3
 (Enter /cm/shared/c3ddb/gaussian/09.d01/g09/l303.exe)
 DipDrv:  MaxL=1.
 Leave Link  303 at Sat Feb 16 13:26:17 2019, MaxMem=   196608000 cpu:         1.2
 (Enter /cm/shared/c3ddb/gaussian/09.d01/g09/l401.exe)
 ExpMin= 1.03D-01 ExpMax= 3.39D+01 ExpMxC= 3.39D+01 IAcc=1 IRadAn=         1 AccDes= 0.00D+00
 Harris functional with IExCor=  402 and IRadAn=       1 diagonalized for initial guess.
 HarFok:  IExCor=  402 AccDes= 0.00D+00 IRadAn=         1 IDoV= 1 UseB2=F ITyADJ=14
 ICtDFT=  3500011 ScaDFX=  1.000000  1.000000  1.000000  1.000000
 FoFCou: FMM=F IPFlag=           0 FMFlag=      100000 FMFlg1=           0
         NFxFlg=           0 DoJE=T BraDBF=F KetDBF=T FulRan=T
         wScrn=  0.000000 ICntrl=     500 IOpCl=  0 I1Cent=   200000004 NGrid=           0
         NMat0=    1 NMatS0=      1 NMatT0=    0 NMatD0=    1 NMtDS0=    0 NMtDT0=    0
 Petite list used in FoFCou.
 Harris En= -1.18835802577248    
 JPrj=0 DoOrth=F DoCkMO=F.
 Initial guess orbital symmetries:
       Occupied  (SGG)
       Virtual   (SGU) (SGG) (SGU) (PIU) (PIU) (SGG) (PIG) (PIG)
                 (SGU) (SGG) (SGU)
 The electronic state of the initial guess is 1-SGG.
 Leave Link  401 at Sat Feb 16 13:26:18 2019, MaxMem=   196608000 cpu:         5.3
 (Enter /cm/shared/c3ddb/gaussian/09.d01/g09/l502.exe)
 Closed shell SCF:
 Using DIIS extrapolation, IDIIS=  1040.
 Integral symmetry usage will be decided dynamically.
 Keep R1 ints in memory in symmetry-blocked form, NReq=870370.
 IVT=        7679 IEndB=        7679 NGot=   196608000 MDV=   196598885
 LenX=   196598885 LenY=   196598003
 Requested convergence on RMS density matrix=1.00D-08 within  64 cycles.
 Requested convergence on MAX density matrix=1.00D-06.
 Requested convergence on             energy=1.00D-06.
 No special actions if energy rises.
 FoFCou: FMM=F IPFlag=           0 FMFlag=           0 FMFlg1=           0
         NFxFlg=           0 DoJE=F BraDBF=F KetDBF=F FulRan=T
         wScrn=  0.000000 ICntrl=     600 IOpCl=  0 I1Cent=           0 NGrid=           0
         NMat0=    1 NMatS0=     78 NMatT0=    0 NMatD0=    1 NMtDS0=    0 NMtDT0=    0
 Petite list used in FoFCou.
 Integral accuracy reduced to 1.0D-05 until final iterations.

 Cycle   1  Pass 0  IDiag  1:
 E= -1.17364251087313    
 DIIS: error= 2.54D-02 at cycle   1 NSaved=   1.
 NSaved= 1 IEnMin= 1 EnMin= -1.17364251087313     IErMin= 1 ErrMin= 2.54D-02
 ErrMax= 2.54D-02  0.00D+00 EMaxC= 1.00D-01 BMatC= 4.15D-03 BMatP= 4.15D-03
 IDIUse=3 WtCom= 7.46D-01 WtEn= 2.54D-01
 Coeff-Com:  0.100D+01
 Coeff-En:   0.100D+01
 Coeff:      0.100D+01
 Gap=     0.477 Goal=   None    Shift=    0.000
 GapD=    0.477 DampG=2.000 DampE=0.500 DampFc=1.0000 IDamp=-1.
 RMSDP=4.50D-03 MaxDP=1.06D-02              OVMax= 6.56D-02

 Cycle   2  Pass 0  IDiag  1:
 E= -1.17929782925435     Delta-E=       -0.005655318381 Rises=F Damp=F
 DIIS: error= 6.03D-03 at cycle   2 NSaved=   2.
 NSaved= 2 IEnMin= 2 EnMin= -1.17929782925435     IErMin= 2 ErrMin= 6.03D-03
 ErrMax= 6.03D-03  0.00D+00 EMaxC= 1.00D-01 BMatC= 1.70D-04 BMatP= 4.15D-03
 IDIUse=3 WtCom= 9.40D-01 WtEn= 6.03D-02
 Coeff-Com:  0.165D+00 0.835D+00
 Coeff-En:   0.000D+00 0.100D+01
 Coeff:      0.155D+00 0.845D+00
 Gap=     0.492 Goal=   None    Shift=    0.000
 RMSDP=8.56D-04 MaxDP=2.34D-03 DE=-5.66D-03 OVMax= 1.24D-02

 Cycle   3  Pass 0  IDiag  1:
 E= -1.17957192958374     Delta-E=       -0.000274100329 Rises=F Damp=F
 DIIS: error= 1.69D-04 at cycle   3 NSaved=   3.
 NSaved= 3 IEnMin= 3 EnMin= -1.17957192958374     IErMin= 3 ErrMin= 1.69D-04
 ErrMax= 1.69D-04  0.00D+00 EMaxC= 1.00D-01 BMatC= 2.06D-07 BMatP= 1.70D-04
 IDIUse=3 WtCom= 9.98D-01 WtEn= 1.69D-03
 Coeff-Com: -0.863D-02-0.764D-02 0.102D+01
 Coeff-En:   0.000D+00 0.000D+00 0.100D+01
 Coeff:     -0.861D-02-0.763D-02 0.102D+01
 Gap=     0.491 Goal=   None    Shift=    0.000
 RMSDP=2.62D-05 MaxDP=6.74D-05 DE=-2.74D-04 OVMax= 3.76D-04

 Cycle   4  Pass 0  IDiag  1:
 E= -1.17957222261080     Delta-E=       -0.000000293027 Rises=F Damp=F
 DIIS: error= 1.58D-06 at cycle   4 NSaved=   4.
 NSaved= 4 IEnMin= 4 EnMin= -1.17957222261080     IErMin= 4 ErrMin= 1.58D-06
 ErrMax= 1.58D-06  0.00D+00 EMaxC= 1.00D-01 BMatC= 1.03D-11 BMatP= 2.06D-07
 IDIUse=1 WtCom= 1.00D+00 WtEn= 0.00D+00
 Coeff-Com:  0.784D-05-0.386D-03-0.558D-02 0.101D+01
 Coeff:      0.784D-05-0.386D-03-0.558D-02 0.101D+01
 Gap=     0.491 Goal=   None    Shift=    0.000
 RMSDP=2.12D-07 MaxDP=6.33D-07 DE=-2.93D-07 OVMax= 2.99D-06

 Initial convergence to 1.0D-05 achieved.  Increase integral accuracy.
 Cycle   5  Pass 1  IDiag  1:
 E= -1.17957101800584     Delta-E=        0.000001204605 Rises=F Damp=F
 DIIS: error= 8.20D-07 at cycle   1 NSaved=   1.
 NSaved= 1 IEnMin= 1 EnMin= -1.17957101800584     IErMin= 1 ErrMin= 8.20D-07
 ErrMax= 8.20D-07  0.00D+00 EMaxC= 1.00D-01 BMatC= 5.08D-12 BMatP= 5.08D-12
 IDIUse=1 WtCom= 1.00D+00 WtEn= 0.00D+00
 Coeff-Com:  0.100D+01
 Coeff:      0.100D+01
 Gap=     0.491 Goal=   None    Shift=    0.000
 RMSDP=2.12D-07 MaxDP=6.33D-07 DE= 1.20D-06 OVMax= 1.20D-06

 Cycle   6  Pass 1  IDiag  1:
 E= -1.17957101801024     Delta-E=       -0.000000000004 Rises=F Damp=F
 DIIS: error= 1.34D-07 at cycle   2 NSaved=   2.
 NSaved= 2 IEnMin= 2 EnMin= -1.17957101801024     IErMin= 2 ErrMin= 1.34D-07
 ErrMax= 1.34D-07  0.00D+00 EMaxC= 1.00D-01 BMatC= 7.83D-14 BMatP= 5.08D-12
 IDIUse=1 WtCom= 1.00D+00 WtEn= 0.00D+00
 Coeff-Com:  0.855D-01 0.915D+00
 Coeff:      0.855D-01 0.915D+00
 Gap=     0.491 Goal=   None    Shift=    0.000
 RMSDP=2.36D-08 MaxDP=7.30D-08 DE=-4.40D-12 OVMax= 3.17D-07

 Cycle   7  Pass 1  IDiag  1:
 E= -1.17957101801039     Delta-E=        0.000000000000 Rises=F Damp=F
 DIIS: error= 1.54D-08 at cycle   3 NSaved=   3.
 NSaved= 3 IEnMin= 3 EnMin= -1.17957101801039     IErMin= 3 ErrMin= 1.54D-08
 ErrMax= 1.54D-08  0.00D+00 EMaxC= 1.00D-01 BMatC= 1.46D-15 BMatP= 7.83D-14
 IDIUse=1 WtCom= 1.00D+00 WtEn= 0.00D+00
 Coeff-Com: -0.952D-02 0.637D-01 0.946D+00
 Coeff:     -0.952D-02 0.637D-01 0.946D+00
 Gap=     0.491 Goal=   None    Shift=    0.000
 RMSDP=1.80D-09 MaxDP=4.98D-09 DE=-1.44D-13 OVMax= 2.83D-08

 SCF Done:  E(RB3LYP) =  -1.17957101801     A.U. after    7 cycles
            NFock=  7  Conv=0.18D-08     -V/T= 2.0380
 KE= 1.136426225259D+00 PE=-3.635289461228D+00 EE= 6.082800453284D-01
 Leave Link  502 at Sat Feb 16 13:26:21 2019, MaxMem=   196608000 cpu:        19.8
 (Enter /cm/shared/c3ddb/gaussian/09.d01/g09/l508.exe)
 QCSCF skips out because SCF is already converged.
 Leave Link  508 at Sat Feb 16 13:26:21 2019, MaxMem=   196608000 cpu:         0.0
 (Enter /cm/shared/c3ddb/gaussian/09.d01/g09/l801.exe)
 DoSCS=F DFT=T ScalE2(SS,OS)=  1.000000  1.000000
 Range of M.O.s used for correlation:     1    12
 NBasis=    12 NAE=     1 NBE=     1 NFC=     0 NFV=     0
 NROrb=     12 NOA=     1 NOB=     1 NVA=    11 NVB=    11
 Leave Link  801 at Sat Feb 16 13:26:21 2019, MaxMem=   196608000 cpu:         0.2
 (Enter /cm/shared/c3ddb/gaussian/09.d01/g09/l1101.exe)
 Using compressed storage, NAtomX=     2.
 Will process      3 centers per pass.
 Leave Link 1101 at Sat Feb 16 13:26:22 2019, MaxMem=   196608000 cpu:         3.0
 (Enter /cm/shared/c3ddb/gaussian/09.d01/g09/l1102.exe)
 Symmetrizing basis deriv contribution to polar:
 IMax=3 JMax=2 DiffMx= 0.00D+00
 Leave Link 1102 at Sat Feb 16 13:26:22 2019, MaxMem=   196608000 cpu:         0.7
 (Enter /cm/shared/c3ddb/gaussian/09.d01/g09/l1110.exe)
 Forming Gx(P) for the SCF density, NAtomX=     2.
 Integral derivatives from FoFJK, PRISM(SPDF).
 Do as many integral derivatives as possible in FoFJK.
 G2DrvN: MDV=     196607880.
 G2DrvN: will do     3 centers at a time, making    1 passes.
 Calling FoFCou, ICntrl=  3107 FMM=F I1Cent=   0 AccDes= 0.00D+00.
 FoFJK:  IHMeth= 1 ICntrl=    3107 DoSepK=F KAlg= 0 I1Cent=   0 FoldK=F
 IRaf=         0 NMat=   1 IRICut=       1 DoRegI=T DoRafI=F ISym2E= 1.
 FoFCou: FMM=F IPFlag=           0 FMFlag=      100000 FMFlg1=           0
         NFxFlg=           0 DoJE=F BraDBF=F KetDBF=F FulRan=T
         wScrn=  0.000000 ICntrl=    3107 IOpCl=  0 I1Cent=           0 NGrid=           0
         NMat0=    1 NMatS0=      1 NMatT0=    0 NMatD0=    1 NMtDS0=    0 NMtDT0=    0
 Petite list used in FoFCou.
 End of G2Drv F.D. properties file   721 does not exist.
 End of G2Drv F.D. properties file   722 does not exist.
 End of G2Drv F.D. properties file   788 does not exist.
 Leave Link 1110 at Sat Feb 16 13:26:23 2019, MaxMem=   196608000 cpu:         3.4
 (Enter /cm/shared/c3ddb/gaussian/09.d01/g09/l1002.exe)
 Minotr:  Closed shell wavefunction.
          IDoAtm=11
          Direct CPHF calculation.
          Differentiating once with respect to electric field.
                with respect to dipole field.
          Differentiating once with respect to nuclear coordinates.
          Using symmetry in CPHF.
          Requested convergence is 1.0D-08 RMS, and 1.0D-07 maximum.
          Secondary convergence is 1.0D-12 RMS, and 1.0D-12 maximum.
          NewPWx=T KeepS1=F KeepF1=F KeepIn=T MapXYZ=F SortEE=F KeepMc=T.
          MDV=     196607964 using IRadAn=       2.
 Generate precomputed XC quadrature information.
 Keep R1 ints in memory in symmetry-blocked form, NReq=861885.
 FoFCou: FMM=F IPFlag=           0 FMFlag=           0 FMFlg1=           0
         NFxFlg=           0 DoJE=F BraDBF=F KetDBF=F FulRan=T
         wScrn=  0.000000 ICntrl=     600 IOpCl=  0 I1Cent=           0 NGrid=           0
         NMat0=    1 NMatS0=     78 NMatT0=    0 NMatD0=    1 NMtDS0=    0 NMtDT0=    0
 Petite list used in FoFCou.
          Solving linear equations simultaneously, MaxMat=       0.
          There are     6 degrees of freedom in the 1st order CPHF.  IDoFFX=4 NUNeed=     6.
      6 vectors produced by pass  0 Test12= 1.83D-16 1.67D-08 XBig12= 4.04D+00 1.97D+00.
 AX will form     6 AO Fock derivatives at one time.
      2 vectors produced by pass  1 Test12= 1.83D-16 1.67D-08 XBig12= 8.61D-02 2.74D-01.
      2 vectors produced by pass  2 Test12= 1.83D-16 1.67D-08 XBig12= 1.30D-05 2.74D-03.
      1 vectors produced by pass  3 Test12= 1.83D-16 1.67D-08 XBig12= 1.57D-10 1.01D-05.
 InvSVY:  IOpt=1 It=  1 EMax= 3.20D-17
 Solved reduced A of dimension    11 with     6 vectors.
 FullF1:  Do perturbations    1 to     6.
 Isotropic polarizability for W=    0.000000        3.03 Bohr**3.
 End of Minotr F.D. properties file   721 does not exist.
 End of Minotr F.D. properties file   722 does not exist.
 End of Minotr F.D. properties file   788 does not exist.
 Leave Link 1002 at Sat Feb 16 13:26:26 2019, MaxMem=   196608000 cpu:        18.5
 (Enter /cm/shared/c3ddb/gaussian/09.d01/g09/l601.exe)
 Copying SCF densities to generalized density rwf, IOpCl= 0 IROHF=0.

 **********************************************************************

            Population analysis using the SCF density.

 **********************************************************************

 Orbital symmetries:
       Occupied  (SGG)
       Virtual   (SGU) (SGG) (SGU) (PIU) (PIU) (SGG) (PIG) (PIG)
                 (SGU) (SGG) (SGU)
 The electronic state is 1-SGG.
 Alpha  occ. eigenvalues --   -0.43392
 Alpha virt. eigenvalues --    0.05737   0.19695   0.46979   1.08461   1.08461
 Alpha virt. eigenvalues --    1.55103   1.82666   1.82666   1.94597   2.37713
 Alpha virt. eigenvalues --    3.31053
          Condensed to atoms (all electrons):
               1          2
     1  H    0.584884   0.415116
     2  H    0.415116   0.584884
 Mulliken charges:
               1
     1  H    0.000000
     2  H    0.000000
 Sum of Mulliken charges =   0.00000
 Mulliken charges with hydrogens summed into heavy atoms:
               1
 APT charges:
               1
     1  H    0.000000
     2  H    0.000000
 Sum of APT charges =   0.00000
 APT charges with hydrogens summed into heavy atoms:
               1
 Electronic spatial extent (au):  <R**2>=              5.2707
 Charge=              0.0000 electrons
 Dipole moment (field-independent basis, Debye):
    X=              0.0000    Y=              0.0000    Z=              0.0000  Tot=              0.0000
 Quadrupole moment (field-independent basis, Debye-Ang):
   XX=             -2.1053   YY=             -2.1053   ZZ=             -1.5483
   XY=              0.0000   XZ=              0.0000   YZ=              0.0000
 Traceless Quadrupole moment (field-independent basis, Debye-Ang):
   XX=             -0.1857   YY=             -0.1857   ZZ=              0.3713
   XY=              0.0000   XZ=              0.0000   YZ=              0.0000
 Octapole moment (field-independent basis, Debye-Ang**2):
  XXX=              0.0000  YYY=              0.0000  ZZZ=              0.0000  XYY=              0.0000
  XXY=              0.0000  XXZ=              0.0000  XZZ=              0.0000  YZZ=              0.0000
  YYZ=              0.0000  XYZ=              0.0000
 Hexadecapole moment (field-independent basis, Debye-Ang**3):
 XXXX=             -2.1808 YYYY=             -2.1808 ZZZZ=             -3.0749 XXXY=              0.0000
 XXXZ=              0.0000 YYYX=              0.0000 YYYZ=              0.0000 ZZZX=              0.0000
 ZZZY=              0.0000 XXYY=             -0.7269 XXZZ=             -0.8923 YYZZ=             -0.8923
 XXYZ=              0.0000 YYXZ=              0.0000 ZZXY=              0.0000
 N-N= 7.110121726308D-01 E-N=-3.635289441315D+00  KE= 1.136426225259D+00
 Symmetry AG   KE= 1.136426225259D+00
 Symmetry B1G  KE= 0.000000000000D+00
 Symmetry B2G  KE= 3.012515862504D-34
 Symmetry B3G  KE= 3.012515862504D-34
 Symmetry AU   KE= 0.000000000000D+00
 Symmetry B1U  KE= 2.939952383112D-31
 Symmetry B2U  KE= 6.268777627167D-35
 Symmetry B3U  KE= 6.268777627167D-35
  Exact polarizability:   1.096   0.000   1.096   0.000   0.000   6.898
 Approx polarizability:   1.162   0.000   1.162   0.000   0.000   8.199
 No NMR shielding tensors so no spin-rotation constants.
 Leave Link  601 at Sat Feb 16 13:26:26 2019, MaxMem=   196608000 cpu:         2.7
 (Enter /cm/shared/c3ddb/gaussian/09.d01/g09/l701.exe)
 Compute integral second derivatives.
 ... and contract with generalized density number  0.
 Entering OneElI...
 Calculate overlap and kinetic energy integrals
    NBasis =  12  MinDer = 2  MaxDer = 2
 Requested accuracy = 0.1000D-12
 PrsmSu:  NPrtUS=   8 ThrOK=T IAlg=1 NPAlg=1 LenDen=           0.
 Prism:   IPart=     0 DynPar=F LinDyn=F Incr=           1.
 PRISM was handed    24574480 working-precision words and    36 shell-pairs
 PRISM was handed    24574480 working-precision words and    36 shell-pairs
 PRISM was handed    24574480 working-precision words and    36 shell-pairs
 PRISM was handed    24574480 working-precision words and    36 shell-pairs
 PRISM was handed    24574480 working-precision words and    36 shell-pairs
 PRISM was handed    24574480 working-precision words and    36 shell-pairs
 PRISM was handed    24574480 working-precision words and    36 shell-pairs
 IPart=  0 NShTot=           7 NBatch=           6 AvBLen=         1.2
 IPart=  3 NShTot=           4 NBatch=           4 AvBLen=         1.0
 IPart=  1 NShTot=           7 NBatch=           6 AvBLen=         1.2
 IPart=  5 NShTot=           3 NBatch=           3 AvBLen=         1.0
 IPart=  7 NShTot=           3 NBatch=           3 AvBLen=         1.0
 IPart=  4 NShTot=           3 NBatch=           3 AvBLen=         1.0
 IPart=  2 NShTot=           6 NBatch=           6 AvBLen=         1.0
 PRISM was handed    24574480 working-precision words and    36 shell-pairs
 IPart=  6 NShTot=           3 NBatch=           3 AvBLen=         1.0
 PrSmSu:  NxtVal=              9.
 Entering OneElI...
 Calculate potential energy integrals
    NBasis =  12  MinDer = 2  MaxDer = 2
 Requested accuracy = 0.1000D-12
 PrsmSu:  NPrtUS=   8 ThrOK=T IAlg=1 NPAlg=1 LenDen=           0.
 Prism:   IPart=     0 DynPar=F LinDyn=F Incr=           1.
 PRISM was handed    24574492 working-precision words and    36 shell-pairs
 PRISM was handed    24574492 working-precision words and    36 shell-pairs
 PRISM was handed    24574492 working-precision words and    36 shell-pairs
 PRISM was handed    24574492 working-precision words and    36 shell-pairs
 PRISM was handed    24574492 working-precision words and    36 shell-pairs
 PRISM was handed    24574492 working-precision words and    36 shell-pairs
 PRISM was handed    24574492 working-precision words and    36 shell-pairs
 PRISM was handed    24574492 working-precision words and    36 shell-pairs
 IPart=  0 NShTot=          16 NBatch=           8 AvBLen=         2.0
 IPart=  4 NShTot=           6 NBatch=           3 AvBLen=         2.0
 IPart=  1 NShTot=          14 NBatch=           7 AvBLen=         2.0
 IPart=  5 NShTot=           6 NBatch=           3 AvBLen=         2.0
 IPart=  2 NShTot=          10 NBatch=           5 AvBLen=         2.0
 IPart=  7 NShTot=           6 NBatch=           3 AvBLen=         2.0
 IPart=  6 NShTot=           6 NBatch=           3 AvBLen=         2.0
 IPart=  3 NShTot=           8 NBatch=           4 AvBLen=         2.0
 PrSmSu:  NxtVal=              9.
 Polarizability after L701:
                1             2             3 
      1  0.109630D+01
      2  0.000000D+00  0.109630D+01
      3  0.000000D+00  0.000000D+00  0.689797D+01
 Dipole Derivatives after L701:
                 1             2             3             4             5 
      1   0.000000D+00  0.000000D+00  0.000000D+00  0.000000D+00  0.000000D+00
      2   0.000000D+00  0.000000D+00  0.000000D+00  0.000000D+00  0.000000D+00
      3   0.000000D+00  0.000000D+00  0.000000D+00  0.000000D+00  0.000000D+00
                 6 
      1   0.000000D+00
      2   0.000000D+00
      3   0.000000D+00
 Hessian after L701:
                1             2             3             4             5 
      1  0.322857D+00
      2  0.000000D+00  0.322857D+00
      3  0.000000D+00  0.000000D+00  0.228959D+00
      4 -0.322857D+00  0.000000D+00  0.000000D+00  0.322857D+00
      5  0.000000D+00 -0.322857D+00  0.000000D+00  0.000000D+00  0.322857D+00
      6  0.000000D+00  0.000000D+00 -0.228959D+00  0.000000D+00  0.000000D+00
                6 
      6  0.228959D+00
 Leave Link  701 at Sat Feb 16 13:26:27 2019, MaxMem=   196608000 cpu:         2.4
 (Enter /cm/shared/c3ddb/gaussian/09.d01/g09/l702.exe)
 L702 exits ... SP integral derivatives will be done elsewhere.
 Leave Link  702 at Sat Feb 16 13:26:27 2019, MaxMem=   196608000 cpu:         0.2
 (Enter /cm/shared/c3ddb/gaussian/09.d01/g09/l703.exe)
 Compute integral second derivatives, UseDBF=F ICtDFT=           0.
 Integral derivatives from FoFJK, PRISM(SPDF).
 ICntrl=    100127.
 Calling FoFJK, ICntrl=    100127 FMM=F ISym2X=1 I1Cent= 0 IOpClX= 0 NMat=1 NMatS=1 NMatT=0.
 FoFJK:  IHMeth= 1 ICntrl=  100127 DoSepK=F KAlg= 0 I1Cent=   0 FoldK=F
 IRaf=         0 NMat=   1 IRICut=       1 DoRegI=T DoRafI=F ISym2E= 1.
 FoFCou: FMM=F IPFlag=           0 FMFlag=      100000 FMFlg1=         800
         NFxFlg=           0 DoJE=F BraDBF=F KetDBF=F FulRan=T
         wScrn=  0.000000 ICntrl=  100127 IOpCl=  0 I1Cent=           0 NGrid=           0
         NMat0=    1 NMatS0=      1 NMatT0=    0 NMatD0=    1 NMtDS0=    0 NMtDT0=    0
 Petite list used in FoFCou.
 FoFCou:  KetSym=F NOpSet=  8 NOpAb=8 NOp=  8.
 FoFCou:  CnvScl= 1.00D+00 Thresh= 1.00D-10 IAcrcy=      10.
 PrismS was handed   196604576 working-precision words and    36 shell-pairs
 FoFCou: LinMIO=F DoNuc=F BraDBF=F KetDBF=F HaveP=T PDBF=F HaveZ=T HaveW=F
         NIJTC =       3 NIJTAt=       0 NIJTCD=       0 NIJTT =       3
         IJTBeg=       1 IJTEnd=       3 KLTBeg=       1 KLTEnd=       3
         IPTBeg=       1 IPTEnd=       3 IPTBCv=       1 IPTECv=       3
         IZTBeg=       1 IZTEnd=       3 IZTBCv=       1 IZTECv=       3
         IWTBeg=       4 IWTEnd=       3 IWTBCv=       4 IWTECv=       3
         INTBeg=       1 INTEnd=       0 IFTBCv=       1 IFTECv=       3
 NCel replicated for PrismC:     1
 CoulSu:  IncDef=  1024 NBBP=            666 NTPThr=   100 NPartT=    8 Incr=           1 LDynOK=F.
 CoulSu:  NPrtUS=   8 ThrOK=T IAlg=1 NPAlg=1 LenDen=           0 LWGrdD=           0 DoCopy=F.
 Enter PrismC: JobTyp=22 DoJE=F Cont=F.
 PrismC:  IPart=     0 DynPar=F LinDyn=F Incr=           1 UseFst=F UseS4=T IGathr=2.
 PrismC was handed    24574442 working-precision words and    36 shell-pairs
 Enter PrismC: JobTyp=22 DoJE=F Cont=F.
 Enter PrismC: JobTyp=22 DoJE=F Cont=F.
 Enter PrismC: JobTyp=22 DoJE=F Cont=F.
 PrismC was handed    24574442 working-precision words and    36 shell-pairs
 PrismC was handed    24574442 working-precision words and    36 shell-pairs
 Enter PrismC: JobTyp=22 DoJE=F Cont=F.
 PrismC was handed    24574442 working-precision words and    36 shell-pairs
 Enter PrismC: JobTyp=22 DoJE=F Cont=F.
 PrismC was handed    24574442 working-precision words and    36 shell-pairs
 Enter PrismC: JobTyp=22 DoJE=F Cont=F.
 Enter PrismC: JobTyp=22 DoJE=F Cont=F.
 PrismC was handed    24574442 working-precision words and    36 shell-pairs
 PrismC was handed    24574442 working-precision words and    36 shell-pairs
 PrismC was handed    24574442 working-precision words and    36 shell-pairs
 IPart=  0 NShTot=          44 NShNF=          44 NShFF=           0 NBatch=          22 AvBLen=         2.0
 IPart=  3 NShTot=          46 NShNF=          46 NShFF=           0 NBatch=          21 AvBLen=         2.2
 IPart=  7 NShTot=          39 NShNF=          39 NShFF=           0 NBatch=          19 AvBLen=         2.1
 IPart=  4 NShTot=          44 NShNF=          44 NShFF=           0 NBatch=          19 AvBLen=         2.3
 IPart=  2 NShTot=          45 NShNF=          45 NShFF=           0 NBatch=          20 AvBLen=         2.3
 IPart=  5 NShTot=          44 NShNF=          44 NShFF=           0 NBatch=          20 AvBLen=         2.2
 IPart=  6 NShTot=          39 NShNF=          39 NShFF=           0 NBatch=          19 AvBLen=         2.1
 IPart=  1 NShTot=          45 NShNF=          45 NShFF=           0 NBatch=          25 AvBLen=         1.8
 CoulSu:  NxtVal=              9.
 ReadGW:  IGet=0 IStart=           1 Next=           1 LGW=           0.
 Remaining memory in FofDFT      187.50 Mw
 CkSvGd:  ISavGI=        -1 IRadAn=       4 IRASav=       0 ISavGd=        -1.
 CalDSu:  NPrtUS=   8 ThrOK=T IAlg=1 NPAlg=2 DoDPD=T LenP=          78 LenD1P=             0.
 IPart=  0 IRanGd=          0 ScrnBf=T ScrnGd=T RCrit=4.00D+00 DoMicB=T.
 IPart=  0          349 of          357 points in       2 batches and        2 microbatches, Max-NSigAt=       2 Max-NSgAt2=       2
 IPart=  4          240 of          254 points in       2 batches and        2 microbatches, Max-NSigAt=       2 Max-NSgAt2=       2
 IPart=  2          242 of          250 points in       2 batches and        4 microbatches, Max-NSigAt=       2 Max-NSgAt2=       2
 IPart=  5          322 of          328 points in       2 batches and        5 microbatches, Max-NSigAt=       2 Max-NSgAt2=       2
 IPart=  7          236 of          254 points in       2 batches and        4 microbatches, Max-NSigAt=       2 Max-NSgAt2=       2
 IPart=  3          328 of          344 points in       2 batches and        4 microbatches, Max-NSigAt=       2 Max-NSgAt2=       2
 IPart=  1          172 of          172 points in       1 batches and        1 microbatches, Max-NSigAt=       2 Max-NSgAt2=       2
 IPart=  6          322 of          344 points in       2 batches and        3 microbatches, Max-NSigAt=       2 Max-NSgAt2=       2
 Polarizability after L703:
                1             2             3 
      1  0.109630D+01
      2  0.000000D+00  0.109630D+01
      3  0.000000D+00  0.000000D+00  0.689797D+01
 Dipole Derivatives after L703:
                 1             2             3             4             5 
      1   0.000000D+00  0.000000D+00  0.000000D+00  0.000000D+00  0.000000D+00
      2   0.000000D+00  0.000000D+00  0.000000D+00  0.000000D+00  0.000000D+00
      3   0.000000D+00  0.000000D+00  0.000000D+00  0.000000D+00  0.000000D+00
                 6 
      1   0.000000D+00
      2   0.000000D+00
      3   0.000000D+00
 Hessian after L703:
                1             2             3             4             5 
      1  0.388608D-04
      2  0.000000D+00  0.388608D-04
      3  0.000000D+00  0.000000D+00  0.372228D+00
      4 -0.388608D-04  0.000000D+00  0.000000D+00  0.388608D-04
      5  0.000000D+00 -0.388608D-04  0.000000D+00  0.000000D+00  0.388608D-04
      6  0.000000D+00  0.000000D+00 -0.372228D+00  0.000000D+00  0.000000D+00
                6 
      6  0.372228D+00
 Leave Link  703 at Sat Feb 16 13:26:27 2019, MaxMem=   196608000 cpu:         2.1
 (Enter /cm/shared/c3ddb/gaussian/09.d01/g09/l716.exe)
 FrcOut:
 IF    =    27 IFX   =    33 IFXYZ =    39
 IFFX  =    45 IFFFX =    66 IFLen =     6
 IFFLen=    21 IFFFLn=     0 IEDerv=    66
 LEDerv=   341 IFroze=   503 ICStrt=   846
 Dipole        =-1.23259516D-32-4.81482486D-35 2.97071395D-17
 DipoleDeriv   = 2.85326775D-15-1.97937923D-21-1.90275948D-12
                -1.38273542D-23 1.61494624D-15-5.76188300D-14
                 1.69253869D-12-2.57192195D-12 4.12336444D-11
                 2.71362251D-15 1.97937955D-21-3.23419708D-12
                 1.38273542D-23 1.73550952D-15 5.76188300D-14
                 1.69432441D-12 2.57192195D-12-1.26688972D-11
 Polarizability= 1.09629834D+00 2.13703515D-21 1.09629834D+00
                -1.86153748D-11 9.14934282D-12 6.89797222D+00
 VibFq2-Diag1:  N=      6 IV=           3 MDV=   196606836 NE2=    32767805
 Full mass-weighted force constant matrix:
 Low frequencies ---   -0.0001    0.0001    0.0001   45.1422   45.1422 4418.0545
 OrtVCM:  Ph=1 IPass= 1 DotMx1= 0.00D+00
 OrtVCM:  IS=    1 I=    1 IndO=    1 Dot= 1.00D+00 DotN= 1.00D+00 ElMax1= 7.07D-01 ElMax1N= 7.07D-01
 OrtVCM:  Ph=2 NNew=    0 IAdd=    2 IPass= 1 DotMx2= 0.00D+00
 OrtVCM:  IS=    1 I=    2 IndO=    2 Dot= 1.00D+00 DotN= 1.00D+00 ElMax1= 7.07D-01 ElMax1N= 7.07D-01
 OrtVCM:  Ph=2 NNew=    0 IAdd=    3 IPass= 1 DotMx2= 0.00D+00
 OrtVCM:  IS=    1 I=    3 IndO=    3 Dot= 1.00D+00 DotN= 1.00D+00 ElMax1= 7.07D-01 ElMax1N= 7.07D-01
 OrtVCM:  Ph=2 NNew=    0 IAdd=    4 IPass= 1 DotMx2= 0.00D+00
 OrtVCM:  IS=    1 I=    4 IndO=    4 Dot= 1.00D+00 DotN= 1.00D+00 ElMax1= 7.07D-01 ElMax1N= 7.07D-01
 OrtVCM:  Ph=2 NNew=    0 IAdd=    5 IPass= 1 DotMx2= 0.00D+00
 OrtVCM:  IS=    1 I=    5 IndO=    5 Dot= 1.00D+00 DotN= 1.00D+00 ElMax1= 7.07D-01 ElMax1N= 7.07D-01
 OrtVCM:  Ph=1 IPass= 1 DotMx1= 7.07D-01
 OrtVCM:  Ph=1 IPass= 2 DotMx1= 1.57D-16
 OrtVCM:  IS=    1 I=    1 IndO=    0 Dot= 1.87D-33 DotN= 1.87D-33 ElMax1= 3.06D-17 ElMax1N= 3.06D-17
 SchOr2:  IPass= 1 Test2A= 1.00D-01 IOff=     0 NDo=     1 NNew=     0
 OrtVCM:  Ph=1 IPass= 1 DotMx1= 7.07D-01
 OrtVCM:  Ph=1 IPass= 2 DotMx1= 1.57D-16
 OrtVCM:  IS=    1 I=    1 IndO=    0 Dot= 2.43D-63 DotN= 2.43D-63 ElMax1= 4.93D-32 ElMax1N= 4.93D-32
 SchOr2:  IPass= 1 Test2A= 1.00D-01 IOff=     1 NDo=     1 NNew=     0
 OrtVCM:  Ph=1 IPass= 1 DotMx1= 7.07D-01
 OrtVCM:  Ph=1 IPass= 2 DotMx1= 1.11D-16
 OrtVCM:  IS=    1 I=    1 IndO=    6 Dot= 5.00D-01 DotN= 5.00D-01 ElMax1= 5.00D-01 ElMax1N= 5.00D-01
 SchOr2:  IPass= 1 Test2A= 1.00D-01 IOff=     2 NDo=     1 NNew=     1
 VibFq2-Diag2:  N=      1 IV=           3 MDV=   196606836 NE2=   196606834
 Dipole derivatives wrt mode   1: -3.92717D-14 -1.13124D-10  1.18543D-09
 Vibrational polarizability contributions from mode   1       0.0000000       0.0000000       0.0000000
 Vibrational hyperpolarizability contributions from mode   1       0.0000000       0.0000000       0.0000000
 Diagonal vibrational polarizability:
        0.0000000       0.0000000       0.0000000
 NorSel:  MapVib=      1
 Harmonic frequencies (cm**-1), IR intensities (KM/Mole), Raman scattering
 activities (A**4/AMU), depolarization ratios for plane and unpolarized
 incident light, reduced masses (AMU), force constants (mDyne/A),
 and normal coordinates:
                      1
                     SGG
 Frequencies --   4418.0545
 Red. masses --      1.0078
 Frc consts  --     11.5904
 IR Inten    --      0.0000
  Atom  AN      X      Y      Z
     1   1     0.00   0.00   0.71
     2   1     0.00   0.00  -0.71

 -------------------
 - Thermochemistry -
 -------------------
 Temperature   298.150 Kelvin.  Pressure   1.00000 Atm.
 Atom     1 has atomic number  1 and mass   1.00783
 Atom     2 has atomic number  1 and mass   1.00783
 Molecular mass:     2.01565 amu.
 Principal axes and moments of inertia in atomic units:
                           1         2         3
     Eigenvalues --     0.00000   0.99678   0.99678
           X            0.00000   1.00000   0.00000
           Y            0.00000   0.00000   1.00000
           Z            1.00000   0.00000   0.00000
 This molecule is a prolate symmetric top.
 Rotational symmetry number  2.
 Rotational temperature (Kelvin)     86.89326
 Rotational constant (GHZ):        1810.563906
 Zero-point vibrational energy      26425.8 (Joules/Mol)
                                    6.31593 (Kcal/Mol)
 Vibrational temperatures:   6356.59
          (Kelvin)
 
 Zero-point correction=                           0.010065 (Hartree/Particle)
 Thermal correction to Energy=                    0.012426
 Thermal correction to Enthalpy=                  0.013370
 Thermal correction to Gibbs Free Energy=        -0.001426
 Sum of electronic and zero-point Energies=             -1.169506
 Sum of electronic and thermal Energies=                -1.167145
 Sum of electronic and thermal Enthalpies=              -1.166201
 Sum of electronic and thermal Free Energies=           -1.180997
 
                     E (Thermal)             CV                S
                      KCal/Mol        Cal/Mol-Kelvin    Cal/Mol-Kelvin
 Total                    7.797              4.968             31.140
 Electronic               0.000              0.000              0.000
 Translational            0.889              2.981             28.080
 Rotational               0.592              1.987              3.060
 Vibrational              6.316              0.000              0.000
                       Q            Log10(Q)             Ln(Q)
 Total Bot       0.452789D+01          0.655896          1.510257
 Total V=0       0.192973D+06          5.285497         12.170306
 Vib (Bot)       0.234639D-04         -4.629600        -10.660049
 Vib (V=0)       0.100000D+01          0.000000          0.000000
 Electronic      0.100000D+01          0.000000          0.000000
 Translational   0.112481D+06          5.051078         11.630537
 Rotational      0.171561D+01          0.234419          0.539769
 Forces in standard orientation:
 -------------------------------------------------------------------
 Center     Atomic                   Forces (Hartrees/Bohr)
 Number     Number              X              Y              Z
 -------------------------------------------------------------------
      1        1           0.000000000    0.000000000    0.000059743
      2        1           0.000000000    0.000000000   -0.000059743
 -------------------------------------------------------------------
 ***** Axes restored to original set *****
 Rotating derivatives, DoTrsp=F IDiff=-2 LEDeriv=    340 LFDPrp=       0 LDFDPr=       0.
 -------------------------------------------------------------------
 Center     Atomic                   Forces (Hartrees/Bohr)
 Number     Number              X              Y              Z
 -------------------------------------------------------------------
      1        1           0.000059743    0.000000000    0.000000000
      2        1          -0.000059743    0.000000000    0.000000000
 -------------------------------------------------------------------
 Cartesian Forces:  Max     0.000059743 RMS     0.000034492
 Z-matrix is all fixed cartesians, so copy forces.
 Force constants in Cartesian coordinates: 
                1             2             3             4             5 
      1  0.372228D+00
      2  0.000000D+00  0.388608D-04
      3  0.000000D+00  0.000000D+00  0.388608D-04
      4 -0.372228D+00  0.000000D+00  0.000000D+00  0.372228D+00
      5  0.000000D+00 -0.388608D-04  0.000000D+00  0.000000D+00  0.388608D-04
      6  0.000000D+00  0.000000D+00 -0.388608D-04  0.000000D+00  0.000000D+00
                6 
      6  0.388608D-04
 Final forces over variables, Energy=-1.17957102D+00:
  5.97425732D-05-5.97425732D-05 5.22221376D-19-5.22221376D-19
  2.69894408D-17-2.69894408D-17
 Leave Link  716 at Sat Feb 16 13:26:27 2019, MaxMem=   196608000 cpu:         1.6
 (Enter /cm/shared/c3ddb/gaussian/09.d01/g09/l103.exe)

 GradGradGradGradGradGradGradGradGradGradGradGradGradGradGradGradGradGrad
 Berny optimization.
 Search for a local minimum.
 Step number   1 out of a maximum of    2
 All quantities printed in internal units (Hartrees-Bohrs-Radians)
 Second derivative matrix not updated -- analytic derivatives used.
 The second derivative matrix:
                          X1        Y1        Z1        X2        Y2
           X1           0.37223
           Y1           0.00000   0.00004
           Z1           0.00000   0.00000   0.00004
           X2          -0.37223   0.00000   0.00000   0.37223
           Y2           0.00000  -0.00004   0.00000   0.00000   0.00004
           Z2           0.00000   0.00000  -0.00004   0.00000   0.00000
                          Z2
           Z2           0.00004
 ITU=  0
     Eigenvalues ---    0.74446
 Angle between quadratic step and forces=   0.00 degrees.
 ClnCor:  largest displacement from symmetrization is 1.45D-20 for atom     2.
 Linear search not attempted -- first point.
 ClnCor:  largest displacement from symmetrization is 0.00D+00 for atom     0.
 TrRot=  0.000000  0.000000  0.000000  0.000000  0.000000  0.000000
 Variable       Old X    -DE/DX   Delta X   Delta X   Delta X     New X
                                 (Linear)    (Quad)   (Total)
    X1        2.26398   0.00006   0.00000   0.00008   0.00008   2.26406
    Y1        0.03542   0.00000   0.00000   0.00000   0.00000   0.03542
    Z1        0.12988   0.00000   0.00000   0.00000   0.00000   0.12988
    X2        3.67043  -0.00006   0.00000  -0.00008  -0.00008   3.67035
    Y2        0.03542   0.00000   0.00000   0.00000   0.00000   0.03542
    Z2        0.12988   0.00000   0.00000   0.00000   0.00000   0.12988
         Item               Value     Threshold  Converged?
 Maximum Force            0.000060     0.000450     YES
 RMS     Force            0.000034     0.000300     YES
 Maximum Displacement     0.000080     0.001800     YES
 RMS     Displacement     0.000046     0.001200     YES
 Predicted change in Energy=-4.794343D-09
 Optimization completed.
    -- Stationary point found.
 GradGradGradGradGradGradGradGradGradGradGradGradGradGradGradGradGradGrad

 Leave Link  103 at Sat Feb 16 13:26:28 2019, MaxMem=   196608000 cpu:         0.8
 (Enter /cm/shared/c3ddb/gaussian/09.d01/g09/l9999.exe)

 Test job not archived.
 1\1\GINC-NODE006\Freq\RB3LYP\6-311G(2d,d,p)\H2\DUMINDA\16-Feb-2019\0\\
 #P b3lyp/cbsb7 freq iop(7/33=1) scf=xqc\\name\\0,1\H,1.198048,0.018743
 ,0.06873\H,1.942307,0.018743,0.06873\\Version=AS64L-G09RevD.01\State=1
 -SGG\HF=-1.179571\RMSD=1.798e-09\RMSF=3.449e-05\ZeroPoint=0.0100651\Th
 ermal=0.0124255\Dipole=0.,0.,0.\DipoleDeriv=0.,0.,0.,0.,0.,0.,0.,0.,0.
 ,0.,0.,0.,0.,0.,0.,0.,0.,0.\Polar=6.8979722,0.,1.0962983,0.,0.,1.09629
 83\PG=D*H [C*(H1.H1)]\NImag=0\\0.37222774,0.,0.00003886,0.,0.,0.000038
 86,-0.37222774,0.,0.,0.37222774,0.,-0.00003886,0.,0.,0.00003886,0.,0.,
 -0.00003886,0.,0.,0.00003886\\-0.00005974,0.,0.,0.00005974,0.,0.\\\@


 SCIENCE AT ITS BEST PROVIDES US WITH BETTER QUESTIONS, 
 NOT ABSOLUTE ANSWERS

                                    -- NORMAN COUSINS, 1976
 Job cpu time:       0 days  0 hours  1 minutes 13.0 seconds.
 File lengths (MBytes):  RWF=      5 Int=      0 D2E=      0 Chk=      1 Scr=      1
 Normal termination of Gaussian 09 at Sat Feb 16 13:26:28 2019.
