 Entering Gaussian System, Link 0=g09
 Initial command:
 /cm/shared/c3ddb/gaussian/09.d01/g09/l1.exe "/scratch/users/duminda/g09/a1697-7322596/Gau-36003.inp" -scrdir="/scratch/users/duminda/g09/a1697-7322596/"
 Entering Link 1 = /cm/shared/c3ddb/gaussian/09.d01/g09/l1.exe PID=     36004.
  
 Copyright (c) 1988,1990,1992,1993,1995,1998,2003,2009,2013,
            Gaussian, Inc.  All Rights Reserved.
  
 This is part of the Gaussian(R) 09 program.  It is based on
 the Gaussian(R) 03 system (copyright 2003, Gaussian, Inc.),
 the Gaussian(R) 98 system (copyright 1998, Gaussian, Inc.),
 the Gaussian(R) 94 system (copyright 1995, Gaussian, Inc.),
 the Gaussian 92(TM) system (copyright 1992, Gaussian, Inc.),
 the Gaussian 90(TM) system (copyright 1990, Gaussian, Inc.),
 the Gaussian 88(TM) system (copyright 1988, Gaussian, Inc.),
 the Gaussian 86(TM) system (copyright 1986, Carnegie Mellon
 University), and the Gaussian 82(TM) system (copyright 1983,
 Carnegie Mellon University). Gaussian is a federally registered
 trademark of Gaussian, Inc.
  
 This software contains proprietary and confidential information,
 including trade secrets, belonging to Gaussian, Inc.
  
 This software is provided under written license and may be
 used, copied, transmitted, or stored only in accord with that
 written license.
  
 The following legend is applicable only to US Government
 contracts under FAR:
  
                    RESTRICTED RIGHTS LEGEND
  
 Use, reproduction and disclosure by the US Government is
 subject to restrictions as set forth in subparagraphs (a)
 and (c) of the Commercial Computer Software - Restricted
 Rights clause in FAR 52.227-19.
  
 Gaussian, Inc.
 340 Quinnipiac St., Bldg. 40, Wallingford CT 06492
  
  
 ---------------------------------------------------------------
 Warning -- This program may not be used in any manner that
 competes with the business of Gaussian, Inc. or will provide
 assistance to any competitor of Gaussian, Inc.  The licensee
 of this program is prohibited from giving any competitor of
 Gaussian, Inc. access to this program.  By using this program,
 the user acknowledges that Gaussian, Inc. is engaged in the
 business of creating and licensing software in the field of
 computational chemistry and represents and warrants to the
 licensee that it is not a competitor of Gaussian, Inc. and that
 it will not use this program in any manner prohibited above.
 ---------------------------------------------------------------
  

 Cite this work as:
 Gaussian 09, Revision D.01,
 M. J. Frisch, G. W. Trucks, H. B. Schlegel, G. E. Scuseria, 
 M. A. Robb, J. R. Cheeseman, G. Scalmani, V. Barone, B. Mennucci, 
 G. A. Petersson, H. Nakatsuji, M. Caricato, X. Li, H. P. Hratchian, 
 A. F. Izmaylov, J. Bloino, G. Zheng, J. L. Sonnenberg, M. Hada, 
 M. Ehara, K. Toyota, R. Fukuda, J. Hasegawa, M. Ishida, T. Nakajima, 
 Y. Honda, O. Kitao, H. Nakai, T. Vreven, J. A. Montgomery, Jr., 
 J. E. Peralta, F. Ogliaro, M. Bearpark, J. J. Heyd, E. Brothers, 
 K. N. Kudin, V. N. Staroverov, T. Keith, R. Kobayashi, J. Normand, 
 K. Raghavachari, A. Rendell, J. C. Burant, S. S. Iyengar, J. Tomasi, 
 M. Cossi, N. Rega, J. M. Millam, M. Klene, J. E. Knox, J. B. Cross, 
 V. Bakken, C. Adamo, J. Jaramillo, R. Gomperts, R. E. Stratmann, 
 O. Yazyev, A. J. Austin, R. Cammi, C. Pomelli, J. W. Ochterski, 
 R. L. Martin, K. Morokuma, V. G. Zakrzewski, G. A. Voth, 
 P. Salvador, J. J. Dannenberg, S. Dapprich, A. D. Daniels, 
 O. Farkas, J. B. Foresman, J. V. Ortiz, J. Cioslowski, 
 and D. J. Fox, Gaussian, Inc., Wallingford CT, 2013.
 
 ******************************************
 Gaussian 09:  AS64L-G09RevD.01 24-Apr-2013
                16-Feb-2019 
 ******************************************
 %chk=check.chk
 %mem=1500mb
 %nproc=8
 Will use up to    8 processors via shared memory.
 ---------------------------------------------------------------
 #P opt=(modredundant, calcfc, noeigentest) ub3lyp/cbsb7 scf=xqc
 ---------------------------------------------------------------
 1/10=4,11=1,14=-1,18=120,19=15,26=3,38=1/1,3;
 2/9=110,12=2,17=6,18=5,40=1/2;
 3/5=4,6=6,7=700,11=2,16=1,25=1,30=1,71=2,74=-5,116=2,140=1/1,2,3;
 4//1;
 5/5=2,8=3,13=1,38=5/2,8;
 8/6=4,10=90,11=11/1;
 11/6=1,8=1,9=11,15=111,16=1/1,2,10;
 10/6=1,13=1/2;
 6/7=2,8=2,9=2,10=2,28=1/1;
 7/10=1,18=20,25=1/1,2,3,16;
 1/10=4,11=1,14=-1,18=20,19=15,26=3/3(2);
 2/9=110/2;
 99//99;
 2/9=110/2;
 3/5=4,6=6,7=700,11=2,16=1,25=1,30=1,71=1,74=-5,116=2/1,2,3;
 4/5=5,16=3,69=1/1;
 5/5=2,8=3,13=1,38=5/2,8;
 7//1,2,3,16;
 1/11=1,14=-1,18=20,19=15,26=3/3(-5);
 2/9=110/2;
 6/7=2,8=2,9=2,10=2,19=2,28=1/1;
 99/9=1/99;
 Leave Link    1 at Sat Feb 16 14:12:40 2019, MaxMem=   196608000 cpu:         0.9
 (Enter /cm/shared/c3ddb/gaussian/09.d01/g09/l101.exe)
 ----
 name
 ----
 Symbolic Z-matrix:
 Charge =  0 Multiplicity = 2
 O                     0.98636  -0.15408   0.26054 
 C                     2.81542   1.26704   0.57846 
 C                     2.16411   0.12608   0.02794 
 H                     3.85231   1.48728   0.35548 
 H                     2.25689   1.92471   1.23327 
 H                     2.7729   -0.51769  -0.63546 
 
 The following ModRedundant input section has been read:
 D       4       2       3       1 S  36 10.000                                
 
 NAtoms=      6 NQM=        6 NQMF=       0 NMMI=      0 NMMIF=      0
                NMic=       0 NMicF=      0.
                    Isotopes and Nuclear Properties:
 (Nuclear quadrupole moments (NQMom) in fm**2, nuclear magnetic moments (NMagM)
  in nuclear magnetons)

  Atom         1           2           3           4           5           6
 IAtWgt=          16          12          12           1           1           1
 AtmWgt=  15.9949146  12.0000000  12.0000000   1.0078250   1.0078250   1.0078250
 NucSpn=           0           0           0           1           1           1
 AtZEff=   0.0000000   0.0000000   0.0000000   0.0000000   0.0000000   0.0000000
 NQMom=    0.0000000   0.0000000   0.0000000   0.0000000   0.0000000   0.0000000
 NMagM=    0.0000000   0.0000000   0.0000000   2.7928460   2.7928460   2.7928460
 AtZNuc=   8.0000000   6.0000000   6.0000000   1.0000000   1.0000000   1.0000000
 Leave Link  101 at Sat Feb 16 14:12:40 2019, MaxMem=   196608000 cpu:         1.1
 (Enter /cm/shared/c3ddb/gaussian/09.d01/g09/l103.exe)

 GradGradGradGradGradGradGradGradGradGradGradGradGradGradGradGradGradGrad
 Berny optimization.
 Initialization pass.
                           ----------------------------
                           !    Initial Parameters    !
                           ! (Angstroms and Degrees)  !
 --------------------------                            --------------------------
 ! Name  Definition              Value          Derivative Info.                !
 --------------------------------------------------------------------------------
 ! R1    R(1,3)                  1.2328         calculate D2E/DX2 analytically  !
 ! R2    R(2,3)                  1.4245         calculate D2E/DX2 analytically  !
 ! R3    R(2,4)                  1.0832         calculate D2E/DX2 analytically  !
 ! R4    R(2,5)                  1.0832         calculate D2E/DX2 analytically  !
 ! R5    R(3,6)                  1.1069         calculate D2E/DX2 analytically  !
 ! A1    A(3,2,4)              121.3975         calculate D2E/DX2 analytically  !
 ! A2    A(3,2,5)              118.9601         calculate D2E/DX2 analytically  !
 ! A3    A(4,2,5)              119.6424         calculate D2E/DX2 analytically  !
 ! A4    A(1,3,2)              123.089          calculate D2E/DX2 analytically  !
 ! A5    A(1,3,6)              120.4226         calculate D2E/DX2 analytically  !
 ! A6    A(2,3,6)              116.4883         calculate D2E/DX2 analytically  !
 ! D1    D(4,2,3,1)            180.0            Scan                            !
 ! D2    D(4,2,3,6)              0.0            calculate D2E/DX2 analytically  !
 ! D3    D(5,2,3,1)              0.0001         calculate D2E/DX2 analytically  !
 ! D4    D(5,2,3,6)           -179.9999         calculate D2E/DX2 analytically  !
 --------------------------------------------------------------------------------
 Trust Radius=3.00D-01 FncErr=1.00D-07 GrdErr=1.00D-06
 Number of optimizations in scan=  37
 Number of steps in this run=     25 maximum allowed number of steps=    100.
 GradGradGradGradGradGradGradGradGradGradGradGradGradGradGradGradGradGrad

 Leave Link  103 at Sat Feb 16 14:12:40 2019, MaxMem=   196608000 cpu:         0.1
 (Enter /cm/shared/c3ddb/gaussian/09.d01/g09/l202.exe)
                          Input orientation:                          
 ---------------------------------------------------------------------
 Center     Atomic      Atomic             Coordinates (Angstroms)
 Number     Number       Type             X           Y           Z
 ---------------------------------------------------------------------
      1          8           0        0.986356   -0.154077    0.260540
      2          6           0        2.815422    1.267042    0.578457
      3          6           0        2.164114    0.126084    0.027935
      4          1           0        3.852308    1.487275    0.355478
      5          1           0        2.256889    1.924714    1.233270
      6          1           0        2.772901   -0.517689   -0.635462
 ---------------------------------------------------------------------
                    Distance matrix (angstroms):
                    1          2          3          4          5
     1  O    0.000000
     2  C    2.337976   0.000000
     3  C    1.232765   1.424451   0.000000
     4  H    3.304048   1.083215   2.193200   0.000000
     5  H    2.623324   1.083177   2.167143   1.872761   0.000000
     6  H    2.031447   2.158859   1.106870   2.483337   3.118294
                    6
     6  H    0.000000
 Stoichiometry    C2H3O(2)
 Framework group  C1[X(C2H3O)]
 Deg. of freedom    12
 Full point group                 C1      NOp   1
 Largest Abelian subgroup         C1      NOp   1
 Largest concise Abelian subgroup C1      NOp   1
                         Standard orientation:                         
 ---------------------------------------------------------------------
 Center     Atomic      Atomic             Coordinates (Angstroms)
 Number     Number       Type             X           Y           Z
 ---------------------------------------------------------------------
      1          8           0       -1.168069   -0.264352    0.000000
      2          6           0        1.168069   -0.171646    0.000000
      3          6           0       -0.133797    0.406461    0.000000
      4          1           0        2.059075    0.444359    0.000000
      5          1           0        1.262774   -1.250674   -0.000001
      6          1           0       -0.182931    1.512240    0.000000
 ---------------------------------------------------------------------
 Rotational constants (GHZ):     67.3710021     11.4543750      9.7899020
 Leave Link  202 at Sat Feb 16 14:12:40 2019, MaxMem=   196608000 cpu:         0.5
 (Enter /cm/shared/c3ddb/gaussian/09.d01/g09/l301.exe)
 Standard basis: 6-311G(2d,d,p) (5D, 7F)
 Ernie: Thresh=  0.10000D-02 Tol=  0.10000D-05 Strict=F.
 There are    75 symmetry adapted cartesian basis functions of A   symmetry.
 There are    72 symmetry adapted basis functions of A   symmetry.
    72 basis functions,   120 primitive gaussians,    75 cartesian basis functions
    12 alpha electrons       11 beta electrons
       nuclear repulsion energy        63.6013904822 Hartrees.
 IExCor=  402 DFT=T Ex+Corr=B3LYP ExCW=0 ScaHFX=  0.200000
 ScaDFX=  0.800000  0.720000  1.000000  0.810000 ScalE2=  1.000000  1.000000
 IRadAn=      0 IRanWt=     -1 IRanGd=            0 ICorTp=0 IEmpDi=  4
 NAtoms=    6 NActive=    6 NUniq=    6 SFac= 1.00D+00 NAtFMM=   60 NAOKFM=F Big=F
 Integral buffers will be    131072 words long.
 Raffenetti 2 integral format.
 Two-electron integral symmetry is turned on.
 Leave Link  301 at Sat Feb 16 14:12:40 2019, MaxMem=   196608000 cpu:         0.9
 (Enter /cm/shared/c3ddb/gaussian/09.d01/g09/l302.exe)
 NPDir=0 NMtPBC=     1 NCelOv=     1 NCel=       1 NClECP=     1 NCelD=      1
         NCelK=      1 NCelE2=     1 NClLst=     1 CellRange=     0.0.
 One-electron integrals computed using PRISM.
 NBasis=    72 RedAO= T EigKep=  4.23D-03  NBF=    72
 NBsUse=    72 1.00D-06 EigRej= -1.00D+00 NBFU=    72
 Precomputing XC quadrature grid using
 IXCGrd= 4 IRadAn=           0 IRanWt=          -1 IRanGd=           0 AccXCQ= 0.00D+00.
 Generated NRdTot=       0 NPtTot=           0 NUsed=           0 NTot=          32
 NSgBfM=    75    75    75    75    75 MxSgAt=     6 MxSgA2=     6.
 Leave Link  302 at Sat Feb 16 14:12:41 2019, MaxMem=   196608000 cpu:         5.0
 (Enter /cm/shared/c3ddb/gaussian/09.d01/g09/l303.exe)
 DipDrv:  MaxL=1.
 Leave Link  303 at Sat Feb 16 14:12:41 2019, MaxMem=   196608000 cpu:         1.4
 (Enter /cm/shared/c3ddb/gaussian/09.d01/g09/l401.exe)
 ExpMin= 1.03D-01 ExpMax= 8.59D+03 ExpMxC= 1.30D+03 IAcc=1 IRadAn=         1 AccDes= 0.00D+00
 Harris functional with IExCor=  402 and IRadAn=       1 diagonalized for initial guess.
 HarFok:  IExCor=  402 AccDes= 0.00D+00 IRadAn=         1 IDoV= 1 UseB2=F ITyADJ=14
 ICtDFT=  3500011 ScaDFX=  1.000000  1.000000  1.000000  1.000000
 FoFCou: FMM=F IPFlag=           0 FMFlag=      100000 FMFlg1=           0
         NFxFlg=           0 DoJE=T BraDBF=F KetDBF=T FulRan=T
         wScrn=  0.000000 ICntrl=     500 IOpCl=  0 I1Cent=   200000004 NGrid=           0
         NMat0=    1 NMatS0=      1 NMatT0=    0 NMatD0=    1 NMtDS0=    0 NMtDT0=    0
 Petite list used in FoFCou.
 Harris En= -153.218275142262    
 JPrj=0 DoOrth=F DoCkMO=F.
 Initial guess <Sx>= 0.0000 <Sy>= 0.0000 <Sz>= 0.5000 <S**2>= 0.7500 S= 0.5000
 Leave Link  401 at Sat Feb 16 14:12:42 2019, MaxMem=   196608000 cpu:         7.2
 (Enter /cm/shared/c3ddb/gaussian/09.d01/g09/l502.exe)
 UHF open shell SCF:
 Using DIIS extrapolation, IDIIS=  1040.
 Integral symmetry usage will be decided dynamically.
 Keep R1 and R2 ints in memory in canonical form, NReq=7827000.
 IVT=       23978 IEndB=       23978 NGot=   196608000 MDV=   189675011
 LenX=   189675011 LenY=   189668945
 Requested convergence on RMS density matrix=1.00D-08 within  64 cycles.
 Requested convergence on MAX density matrix=1.00D-06.
 Requested convergence on             energy=1.00D-06.
 No special actions if energy rises.
 FoFCou: FMM=F IPFlag=           0 FMFlag=           0 FMFlg1=           0
         NFxFlg=           0 DoJE=F BraDBF=F KetDBF=F FulRan=T
         wScrn=  0.000000 ICntrl=     600 IOpCl=  0 I1Cent=           0 NGrid=           0
         NMat0=    1 NMatS0=   2628 NMatT0=    0 NMatD0=    1 NMtDS0=    0 NMtDT0=    0
 Symmetry not used in FoFCou.
 Integral accuracy reduced to 1.0D-05 until final iterations.

 Cycle   1  Pass 0  IDiag  1:
 E= -153.133762399284    
 DIIS: error= 4.06D-02 at cycle   1 NSaved=   1.
 NSaved= 1 IEnMin= 1 EnMin= -153.133762399284     IErMin= 1 ErrMin= 4.06D-02
 ErrMax= 4.06D-02  0.00D+00 EMaxC= 1.00D-01 BMatC= 4.19D-01 BMatP= 4.19D-01
 IDIUse=3 WtCom= 5.94D-01 WtEn= 4.06D-01
 Coeff-Com:  0.100D+01
 Coeff-En:   0.100D+01
 Coeff:      0.100D+01
 Gap=     0.256 Goal=   None    Shift=    0.000
 Gap=     0.047 Goal=   None    Shift=    0.000
 GapD=    0.047 DampG=0.250 DampE=0.500 DampFc=0.2500 IDamp=-1.
 Damping current iteration by 2.50D-01
 RMSDP=1.18D-02 MaxDP=3.13D-01              OVMax= 3.40D-01

 Cycle   2  Pass 0  IDiag  1:
 E= -153.160686239693     Delta-E=       -0.026923840410 Rises=F Damp=T
 DIIS: error= 1.49D-02 at cycle   2 NSaved=   2.
 NSaved= 2 IEnMin= 2 EnMin= -153.160686239693     IErMin= 2 ErrMin= 1.49D-02
 ErrMax= 1.49D-02  0.00D+00 EMaxC= 1.00D-01 BMatC= 7.70D-02 BMatP= 4.19D-01
 IDIUse=3 WtCom= 8.51D-01 WtEn= 1.49D-01
 Coeff-Com: -0.425D+00 0.143D+01
 Coeff-En:   0.000D+00 0.100D+01
 Coeff:     -0.362D+00 0.136D+01
 Gap=     0.324 Goal=   None    Shift=    0.000
 Gap=     0.136 Goal=   None    Shift=    0.000
 RMSDP=1.99D-03 MaxDP=5.35D-02 DE=-2.69D-02 OVMax= 2.77D-01

 Cycle   3  Pass 0  IDiag  1:
 E= -153.204143133361     Delta-E=       -0.043456893668 Rises=F Damp=F
 DIIS: error= 1.69D-02 at cycle   3 NSaved=   3.
 NSaved= 3 IEnMin= 3 EnMin= -153.204143133361     IErMin= 2 ErrMin= 1.49D-02
 ErrMax= 1.69D-02  0.00D+00 EMaxC= 1.00D-01 BMatC= 5.04D-02 BMatP= 7.70D-02
 IDIUse=3 WtCom= 8.31D-01 WtEn= 1.69D-01
 Coeff-Com: -0.333D+00 0.818D+00 0.515D+00
 Coeff-En:   0.000D+00 0.000D+00 0.100D+01
 Coeff:     -0.277D+00 0.680D+00 0.597D+00
 Gap=     0.271 Goal=   None    Shift=    0.000
 Gap=     0.109 Goal=   None    Shift=    0.000
 RMSDP=1.41D-03 MaxDP=2.74D-02 DE=-4.35D-02 OVMax= 9.01D-02

 Cycle   4  Pass 0  IDiag  1:
 E= -153.214039425229     Delta-E=       -0.009896291868 Rises=F Damp=F
 DIIS: error= 8.30D-03 at cycle   4 NSaved=   4.
 NSaved= 4 IEnMin= 4 EnMin= -153.214039425229     IErMin= 4 ErrMin= 8.30D-03
 ErrMax= 8.30D-03  0.00D+00 EMaxC= 1.00D-01 BMatC= 1.20D-02 BMatP= 5.04D-02
 IDIUse=3 WtCom= 9.17D-01 WtEn= 8.30D-02
 Coeff-Com:  0.116D-01 0.607D-03 0.315D+00 0.673D+00
 Coeff-En:   0.000D+00 0.000D+00 0.197D+00 0.803D+00
 Coeff:      0.106D-01 0.557D-03 0.305D+00 0.684D+00
 Gap=     0.270 Goal=   None    Shift=    0.000
 Gap=     0.122 Goal=   None    Shift=    0.000
 RMSDP=5.20D-04 MaxDP=1.02D-02 DE=-9.90D-03 OVMax= 2.03D-02

 Cycle   5  Pass 0  IDiag  1:
 E= -153.216746585863     Delta-E=       -0.002707160634 Rises=F Damp=F
 DIIS: error= 1.53D-03 at cycle   5 NSaved=   5.
 NSaved= 5 IEnMin= 5 EnMin= -153.216746585863     IErMin= 5 ErrMin= 1.53D-03
 ErrMax= 1.53D-03  0.00D+00 EMaxC= 1.00D-01 BMatC= 1.07D-04 BMatP= 1.20D-02
 IDIUse=3 WtCom= 9.85D-01 WtEn= 1.53D-02
 Coeff-Com:  0.208D-01-0.452D-01 0.144D-01 0.874D-01 0.923D+00
 Coeff-En:   0.000D+00 0.000D+00 0.000D+00 0.000D+00 0.100D+01
 Coeff:      0.205D-01-0.445D-01 0.142D-01 0.860D-01 0.924D+00
 Gap=     0.271 Goal=   None    Shift=    0.000
 Gap=     0.122 Goal=   None    Shift=    0.000
 RMSDP=1.02D-04 MaxDP=2.05D-03 DE=-2.71D-03 OVMax= 7.88D-03

 Cycle   6  Pass 0  IDiag  1:
 E= -153.216822749020     Delta-E=       -0.000076163158 Rises=F Damp=F
 DIIS: error= 6.72D-04 at cycle   6 NSaved=   6.
 NSaved= 6 IEnMin= 6 EnMin= -153.216822749020     IErMin= 6 ErrMin= 6.72D-04
 ErrMax= 6.72D-04  0.00D+00 EMaxC= 1.00D-01 BMatC= 4.78D-05 BMatP= 1.07D-04
 IDIUse=3 WtCom= 9.93D-01 WtEn= 6.72D-03
 Coeff-Com:  0.576D-02-0.160D-01-0.517D-01-0.108D+00 0.316D+00 0.854D+00
 Coeff-En:   0.000D+00 0.000D+00 0.000D+00 0.000D+00 0.000D+00 0.100D+01
 Coeff:      0.573D-02-0.159D-01-0.514D-01-0.107D+00 0.313D+00 0.855D+00
 Gap=     0.272 Goal=   None    Shift=    0.000
 Gap=     0.123 Goal=   None    Shift=    0.000
 RMSDP=7.98D-05 MaxDP=1.46D-03 DE=-7.62D-05 OVMax= 5.02D-03

 Cycle   7  Pass 0  IDiag  1:
 E= -153.216850395243     Delta-E=       -0.000027646223 Rises=F Damp=F
 DIIS: error= 3.68D-04 at cycle   7 NSaved=   7.
 NSaved= 7 IEnMin= 7 EnMin= -153.216850395243     IErMin= 7 ErrMin= 3.68D-04
 ErrMax= 3.68D-04  0.00D+00 EMaxC= 1.00D-01 BMatC= 1.23D-05 BMatP= 4.78D-05
 IDIUse=3 WtCom= 9.96D-01 WtEn= 3.68D-03
 Coeff-Com: -0.361D-02 0.657D-02-0.237D-01-0.676D-01-0.146D+00 0.408D+00
 Coeff-Com:  0.827D+00
 Coeff-En:   0.000D+00 0.000D+00 0.000D+00 0.000D+00 0.000D+00 0.000D+00
 Coeff-En:   0.100D+01
 Coeff:     -0.359D-02 0.655D-02-0.236D-01-0.674D-01-0.146D+00 0.406D+00
 Coeff:      0.827D+00
 Gap=     0.273 Goal=   None    Shift=    0.000
 Gap=     0.123 Goal=   None    Shift=    0.000
 RMSDP=3.35D-05 MaxDP=6.75D-04 DE=-2.76D-05 OVMax= 2.99D-03

 Cycle   8  Pass 0  IDiag  1:
 E= -153.216857642356     Delta-E=       -0.000007247112 Rises=F Damp=F
 DIIS: error= 8.15D-05 at cycle   8 NSaved=   8.
 NSaved= 8 IEnMin= 8 EnMin= -153.216857642356     IErMin= 8 ErrMin= 8.15D-05
 ErrMax= 8.15D-05  0.00D+00 EMaxC= 1.00D-01 BMatC= 4.59D-07 BMatP= 1.23D-05
 IDIUse=1 WtCom= 1.00D+00 WtEn= 0.00D+00
 Coeff-Com: -0.712D-03 0.192D-02 0.325D-02 0.382D-02-0.475D-01-0.280D-01
 Coeff-Com:  0.119D-01 0.106D+01
 Coeff:     -0.712D-03 0.192D-02 0.325D-02 0.382D-02-0.475D-01-0.280D-01
 Coeff:      0.119D-01 0.106D+01
 Gap=     0.273 Goal=   None    Shift=    0.000
 Gap=     0.123 Goal=   None    Shift=    0.000
 RMSDP=1.20D-05 MaxDP=2.26D-04 DE=-7.25D-06 OVMax= 1.05D-03

 Cycle   9  Pass 0  IDiag  1:
 E= -153.216858263447     Delta-E=       -0.000000621091 Rises=F Damp=F
 DIIS: error= 3.59D-05 at cycle   9 NSaved=   9.
 NSaved= 9 IEnMin= 9 EnMin= -153.216858263447     IErMin= 9 ErrMin= 3.59D-05
 ErrMax= 3.59D-05  0.00D+00 EMaxC= 1.00D-01 BMatC= 8.17D-08 BMatP= 4.59D-07
 IDIUse=1 WtCom= 1.00D+00 WtEn= 0.00D+00
 Coeff-Com:  0.736D-03-0.118D-02 0.320D-02 0.829D-02 0.174D-01-0.478D-01
 Coeff-Com: -0.124D+00-0.173D-01 0.116D+01
 Coeff:      0.736D-03-0.118D-02 0.320D-02 0.829D-02 0.174D-01-0.478D-01
 Coeff:     -0.124D+00-0.173D-01 0.116D+01
 Gap=     0.273 Goal=   None    Shift=    0.000
 Gap=     0.123 Goal=   None    Shift=    0.000
 RMSDP=5.39D-06 MaxDP=1.02D-04 DE=-6.21D-07 OVMax= 4.38D-04

 Initial convergence to 1.0D-05 achieved.  Increase integral accuracy.
 Cycle  10  Pass 1  IDiag  1:
 E= -153.216864547456     Delta-E=       -0.000006284010 Rises=F Damp=F
 DIIS: error= 5.94D-06 at cycle   1 NSaved=   1.
 NSaved= 1 IEnMin= 1 EnMin= -153.216864547456     IErMin= 1 ErrMin= 5.94D-06
 ErrMax= 5.94D-06  0.00D+00 EMaxC= 1.00D-01 BMatC= 1.15D-08 BMatP= 1.15D-08
 IDIUse=1 WtCom= 1.00D+00 WtEn= 0.00D+00
 Coeff-Com:  0.100D+01
 Coeff:      0.100D+01
 Gap=     0.273 Goal=   None    Shift=    0.000
 Gap=     0.123 Goal=   None    Shift=    0.000
 RMSDP=5.39D-06 MaxDP=1.02D-04 DE=-6.28D-06 OVMax= 5.43D-05

 Cycle  11  Pass 1  IDiag  1:
 E= -153.216864552679     Delta-E=       -0.000000005223 Rises=F Damp=F
 DIIS: error= 5.73D-06 at cycle   2 NSaved=   2.
 NSaved= 2 IEnMin= 2 EnMin= -153.216864552679     IErMin= 2 ErrMin= 5.73D-06
 ErrMax= 5.73D-06  0.00D+00 EMaxC= 1.00D-01 BMatC= 2.30D-09 BMatP= 1.15D-08
 IDIUse=1 WtCom= 1.00D+00 WtEn= 0.00D+00
 Coeff-Com:  0.144D+00 0.856D+00
 Coeff:      0.144D+00 0.856D+00
 Gap=     0.273 Goal=   None    Shift=    0.000
 Gap=     0.123 Goal=   None    Shift=    0.000
 RMSDP=5.74D-07 MaxDP=1.03D-05 DE=-5.22D-09 OVMax= 5.13D-05

 Cycle  12  Pass 1  IDiag  1:
 E= -153.216864552340     Delta-E=        0.000000000339 Rises=F Damp=F
 DIIS: error= 7.00D-06 at cycle   3 NSaved=   3.
 NSaved= 3 IEnMin= 2 EnMin= -153.216864552679     IErMin= 2 ErrMin= 5.73D-06
 ErrMax= 7.00D-06  0.00D+00 EMaxC= 1.00D-01 BMatC= 7.24D-09 BMatP= 2.30D-09
 IDIUse=1 WtCom= 1.00D+00 WtEn= 0.00D+00
 Coeff-Com: -0.616D-01 0.689D+00 0.372D+00
 Coeff:     -0.616D-01 0.689D+00 0.372D+00
 Gap=     0.273 Goal=   None    Shift=    0.000
 Gap=     0.123 Goal=   None    Shift=    0.000
 RMSDP=3.94D-07 MaxDP=7.49D-06 DE= 3.39D-10 OVMax= 1.73D-05

 Cycle  13  Pass 1  IDiag  1:
 E= -153.216864553782     Delta-E=       -0.000000001442 Rises=F Damp=F
 DIIS: error= 1.09D-06 at cycle   4 NSaved=   4.
 NSaved= 4 IEnMin= 4 EnMin= -153.216864553782     IErMin= 4 ErrMin= 1.09D-06
 ErrMax= 1.09D-06  0.00D+00 EMaxC= 1.00D-01 BMatC= 1.11D-10 BMatP= 2.30D-09
 IDIUse=1 WtCom= 1.00D+00 WtEn= 0.00D+00
 Coeff-Com: -0.374D-01 0.940D-02-0.382D-01 0.107D+01
 Coeff:     -0.374D-01 0.940D-02-0.382D-01 0.107D+01
 Gap=     0.273 Goal=   None    Shift=    0.000
 Gap=     0.123 Goal=   None    Shift=    0.000
 RMSDP=1.41D-07 MaxDP=2.21D-06 DE=-1.44D-09 OVMax= 9.71D-06

 Cycle  14  Pass 1  IDiag  1:
 E= -153.216864553882     Delta-E=       -0.000000000100 Rises=F Damp=F
 DIIS: error= 6.41D-07 at cycle   5 NSaved=   5.
 NSaved= 5 IEnMin= 5 EnMin= -153.216864553882     IErMin= 5 ErrMin= 6.41D-07
 ErrMax= 6.41D-07  0.00D+00 EMaxC= 1.00D-01 BMatC= 2.45D-11 BMatP= 1.11D-10
 IDIUse=1 WtCom= 1.00D+00 WtEn= 0.00D+00
 Coeff-Com:  0.308D-02-0.131D+00-0.896D-01 0.249D+00 0.969D+00
 Coeff:      0.308D-02-0.131D+00-0.896D-01 0.249D+00 0.969D+00
 Gap=     0.273 Goal=   None    Shift=    0.000
 Gap=     0.123 Goal=   None    Shift=    0.000
 RMSDP=8.22D-08 MaxDP=1.47D-06 DE=-1.00D-10 OVMax= 5.98D-06

 Cycle  15  Pass 1  IDiag  1:
 E= -153.216864553905     Delta-E=       -0.000000000023 Rises=F Damp=F
 DIIS: error= 2.79D-07 at cycle   6 NSaved=   6.
 NSaved= 6 IEnMin= 6 EnMin= -153.216864553905     IErMin= 6 ErrMin= 2.79D-07
 ErrMax= 2.79D-07  0.00D+00 EMaxC= 1.00D-01 BMatC= 8.70D-12 BMatP= 2.45D-11
 IDIUse=1 WtCom= 1.00D+00 WtEn= 0.00D+00
 Coeff-Com:  0.597D-02-0.677D-01-0.377D-01-0.280D-01 0.489D+00 0.638D+00
 Coeff:      0.597D-02-0.677D-01-0.377D-01-0.280D-01 0.489D+00 0.638D+00
 Gap=     0.273 Goal=   None    Shift=    0.000
 Gap=     0.123 Goal=   None    Shift=    0.000
 RMSDP=2.35D-08 MaxDP=4.38D-07 DE=-2.27D-11 OVMax= 2.20D-06

 Cycle  16  Pass 1  IDiag  1:
 E= -153.216864553909     Delta-E=       -0.000000000004 Rises=F Damp=F
 DIIS: error= 9.11D-08 at cycle   7 NSaved=   7.
 NSaved= 7 IEnMin= 7 EnMin= -153.216864553909     IErMin= 7 ErrMin= 9.11D-08
 ErrMax= 9.11D-08  0.00D+00 EMaxC= 1.00D-01 BMatC= 8.17D-13 BMatP= 8.70D-12
 IDIUse=1 WtCom= 1.00D+00 WtEn= 0.00D+00
 Coeff-Com: -0.140D-03 0.238D-01 0.118D-01-0.478D-01-0.158D+00 0.624D-01
 Coeff-Com:  0.111D+01
 Coeff:     -0.140D-03 0.238D-01 0.118D-01-0.478D-01-0.158D+00 0.624D-01
 Coeff:      0.111D+01
 Gap=     0.273 Goal=   None    Shift=    0.000
 Gap=     0.123 Goal=   None    Shift=    0.000
 RMSDP=1.19D-08 MaxDP=2.28D-07 DE=-3.87D-12 OVMax= 9.90D-07

 Cycle  17  Pass 1  IDiag  1:
 E= -153.216864553910     Delta-E=       -0.000000000001 Rises=F Damp=F
 DIIS: error= 4.21D-08 at cycle   8 NSaved=   8.
 NSaved= 8 IEnMin= 8 EnMin= -153.216864553910     IErMin= 8 ErrMin= 4.21D-08
 ErrMax= 4.21D-08  0.00D+00 EMaxC= 1.00D-01 BMatC= 1.75D-13 BMatP= 8.17D-13
 IDIUse=1 WtCom= 1.00D+00 WtEn= 0.00D+00
 Coeff-Com: -0.107D-02 0.183D-01 0.679D-02-0.441D-02-0.126D+00-0.919D-01
 Coeff-Com:  0.235D+00 0.963D+00
 Coeff:     -0.107D-02 0.183D-01 0.679D-02-0.441D-02-0.126D+00-0.919D-01
 Coeff:      0.235D+00 0.963D+00
 Gap=     0.273 Goal=   None    Shift=    0.000
 Gap=     0.123 Goal=   None    Shift=    0.000
 RMSDP=5.72D-09 MaxDP=1.00D-07 DE=-7.96D-13 OVMax= 3.45D-07

 SCF Done:  E(UB3LYP) =  -153.216864554     A.U. after   17 cycles
            NFock= 17  Conv=0.57D-08     -V/T= 2.0033
 <Sx>= 0.0000 <Sy>= 0.0000 <Sz>= 0.5000 <S**2>= 0.7682 S= 0.5091
 <L.S>= 0.000000000000E+00
 KE= 1.527094382349D+02 PE=-4.860978130032D+02 EE= 1.165701197321D+02
 Annihilation of the first spin contaminant:
 S**2 before annihilation     0.7682,   after     0.7501
 Leave Link  502 at Sat Feb 16 14:12:53 2019, MaxMem=   196608000 cpu:        74.6
 (Enter /cm/shared/c3ddb/gaussian/09.d01/g09/l508.exe)
 QCSCF skips out because SCF is already converged.
 Leave Link  508 at Sat Feb 16 14:12:54 2019, MaxMem=   196608000 cpu:         0.0
 (Enter /cm/shared/c3ddb/gaussian/09.d01/g09/l801.exe)
 DoSCS=F DFT=T ScalE2(SS,OS)=  1.000000  1.000000
 Range of M.O.s used for correlation:     1    72
 NBasis=    72 NAE=    12 NBE=    11 NFC=     0 NFV=     0
 NROrb=     72 NOA=    12 NOB=    11 NVA=    60 NVB=    61
 Leave Link  801 at Sat Feb 16 14:12:54 2019, MaxMem=   196608000 cpu:         0.2
 (Enter /cm/shared/c3ddb/gaussian/09.d01/g09/l1101.exe)
 Using compressed storage, NAtomX=     6.
 Will process      7 centers per pass.
 Leave Link 1101 at Sat Feb 16 14:12:55 2019, MaxMem=   196608000 cpu:         6.4
 (Enter /cm/shared/c3ddb/gaussian/09.d01/g09/l1102.exe)
 Symmetrizing basis deriv contribution to polar:
 IMax=3 JMax=2 DiffMx= 0.00D+00
 Leave Link 1102 at Sat Feb 16 14:12:55 2019, MaxMem=   196608000 cpu:         1.0
 (Enter /cm/shared/c3ddb/gaussian/09.d01/g09/l1110.exe)
 Forming Gx(P) for the SCF density, NAtomX=     6.
 Integral derivatives from FoFJK, PRISM(SPDF).
 Do as many integral derivatives as possible in FoFJK.
 G2DrvN: MDV=     196607848.
 G2DrvN: will do     7 centers at a time, making    1 passes.
 Calling FoFCou, ICntrl=  3107 FMM=F I1Cent=   0 AccDes= 0.00D+00.
 FoFJK:  IHMeth= 1 ICntrl=    3107 DoSepK=F KAlg= 0 I1Cent=   0 FoldK=F
 IRaf=         0 NMat=   1 IRICut=       1 DoRegI=T DoRafI=F ISym2E= 0.
 FoFCou: FMM=F IPFlag=           0 FMFlag=      100000 FMFlg1=           0
         NFxFlg=           0 DoJE=F BraDBF=F KetDBF=F FulRan=T
         wScrn=  0.000000 ICntrl=    3107 IOpCl=  1 I1Cent=           0 NGrid=           0
         NMat0=    1 NMatS0=      1 NMatT0=    0 NMatD0=    1 NMtDS0=    0 NMtDT0=    0
 Symmetry not used in FoFCou.
 End of G2Drv F.D. properties file   721 does not exist.
 End of G2Drv F.D. properties file   722 does not exist.
 End of G2Drv F.D. properties file   788 does not exist.
 Leave Link 1110 at Sat Feb 16 14:13:00 2019, MaxMem=   196608000 cpu:        36.9
 (Enter /cm/shared/c3ddb/gaussian/09.d01/g09/l1002.exe)
 Minotr:  UHF open shell wavefunction.
          IDoAtm=111111
          Direct CPHF calculation.
          Differentiating once with respect to nuclear coordinates.
          Requested convergence is 1.0D-08 RMS, and 1.0D-07 maximum.
          Secondary convergence is 1.0D-12 RMS, and 1.0D-12 maximum.
          NewPWx=T KeepS1=F KeepF1=F KeepIn=T MapXYZ=F SortEE=F KeepMc=T.
          MDV=     196607792 using IRadAn=       2.
 Generate precomputed XC quadrature information.
 Keep R1 and R2 ints in memory in canonical form, NReq=7803650.
 FoFCou: FMM=F IPFlag=           0 FMFlag=           0 FMFlg1=           0
         NFxFlg=           0 DoJE=F BraDBF=F KetDBF=F FulRan=T
         wScrn=  0.000000 ICntrl=     600 IOpCl=  0 I1Cent=           0 NGrid=           0
         NMat0=    1 NMatS0=   2628 NMatT0=    0 NMatD0=    1 NMtDS0=    0 NMtDT0=    0
 Symmetry not used in FoFCou.
          Solving linear equations simultaneously, MaxMat=       0.
          There are    21 degrees of freedom in the 1st order CPHF.  IDoFFX=6 NUNeed=     0.
     15 vectors produced by pass  0 Test12= 6.62D-15 4.76D-09 XBig12= 2.25D-01 2.68D-01.
 AX will form    15 AO Fock derivatives at one time.
     15 vectors produced by pass  1 Test12= 6.62D-15 4.76D-09 XBig12= 1.26D-01 1.79D-01.
     15 vectors produced by pass  2 Test12= 6.62D-15 4.76D-09 XBig12= 4.29D-03 2.33D-02.
     15 vectors produced by pass  3 Test12= 6.62D-15 4.76D-09 XBig12= 7.23D-05 2.62D-03.
     15 vectors produced by pass  4 Test12= 6.62D-15 4.76D-09 XBig12= 4.92D-07 1.66D-04.
     15 vectors produced by pass  5 Test12= 6.62D-15 4.76D-09 XBig12= 3.05D-09 1.12D-05.
     12 vectors produced by pass  6 Test12= 6.62D-15 4.76D-09 XBig12= 2.14D-11 8.80D-07.
      3 vectors produced by pass  7 Test12= 6.62D-15 4.76D-09 XBig12= 7.55D-14 4.30D-08.
      1 vectors produced by pass  8 Test12= 6.62D-15 4.76D-09 XBig12= 6.30D-16 5.07D-09.
 InvSVY:  IOpt=1 It=  1 EMax= 1.11D-15
 Solved reduced A of dimension   106 with    15 vectors.
 End of Minotr F.D. properties file   721 does not exist.
 End of Minotr F.D. properties file   722 does not exist.
 End of Minotr F.D. properties file   788 does not exist.
 Leave Link 1002 at Sat Feb 16 14:13:14 2019, MaxMem=   196608000 cpu:        94.5
 (Enter /cm/shared/c3ddb/gaussian/09.d01/g09/l601.exe)
 Copying SCF densities to generalized density rwf, IOpCl= 1 IROHF=0.

 **********************************************************************

            Population analysis using the SCF density.

 **********************************************************************

 Orbital symmetries:
 Alpha Orbitals:
       Occupied  (A) (A) (A) (A) (A) (A) (A) (A) (A) (A) (A) (A)
       Virtual   (A) (A) (A) (A) (A) (A) (A) (A) (A) (A) (A) (A)
                 (A) (A) (A) (A) (A) (A) (A) (A) (A) (A) (A) (A)
                 (A) (A) (A) (A) (A) (A) (A) (A) (A) (A) (A) (A)
                 (A) (A) (A) (A) (A) (A) (A) (A) (A) (A) (A) (A)
                 (A) (A) (A) (A) (A) (A) (A) (A) (A) (A) (A) (A)
 Beta  Orbitals:
       Occupied  (A) (A) (A) (A) (A) (A) (A) (A) (A) (A) (A)
       Virtual   (A) (A) (A) (A) (A) (A) (A) (A) (A) (A) (A) (A)
                 (A) (A) (A) (A) (A) (A) (A) (A) (A) (A) (A) (A)
                 (A) (A) (A) (A) (A) (A) (A) (A) (A) (A) (A) (A)
                 (A) (A) (A) (A) (A) (A) (A) (A) (A) (A) (A) (A)
                 (A) (A) (A) (A) (A) (A) (A) (A) (A) (A) (A) (A)
                 (A)
 The electronic state is 2-A.
 Alpha  occ. eigenvalues --  -19.12706 -10.25625 -10.21985  -1.05243  -0.76886
 Alpha  occ. eigenvalues --   -0.58811  -0.50364  -0.45776  -0.42079  -0.41981
 Alpha  occ. eigenvalues --   -0.27472  -0.27421
 Alpha virt. eigenvalues --   -0.00115   0.05148   0.07029   0.11181   0.20538
 Alpha virt. eigenvalues --    0.24781   0.32323   0.34368   0.37075   0.42264
 Alpha virt. eigenvalues --    0.45264   0.56703   0.57067   0.60035   0.62301
 Alpha virt. eigenvalues --    0.64088   0.72071   0.82710   0.82889   0.94530
 Alpha virt. eigenvalues --    0.98851   1.03195   1.23868   1.30371   1.38978
 Alpha virt. eigenvalues --    1.39339   1.44872   1.51834   1.56484   1.59141
 Alpha virt. eigenvalues --    1.73408   1.75823   1.90824   1.92578   2.00821
 Alpha virt. eigenvalues --    2.06375   2.11693   2.22725   2.47264   2.50357
 Alpha virt. eigenvalues --    2.52447   2.53243   2.62168   2.71085   2.79534
 Alpha virt. eigenvalues --    2.88384   2.92742   3.10305   3.28385   3.35069
 Alpha virt. eigenvalues --    3.50235   3.67102   3.81396   4.08400   4.82067
 Alpha virt. eigenvalues --    4.96620   5.55214  23.72104  23.94022  49.90880
  Beta  occ. eigenvalues --  -19.11750 -10.25854 -10.20862  -1.03520  -0.74136
  Beta  occ. eigenvalues --   -0.58068  -0.49681  -0.44877  -0.41328  -0.38161
  Beta  occ. eigenvalues --   -0.26422
  Beta virt. eigenvalues --   -0.14080   0.03154   0.05474   0.07307   0.11363
  Beta virt. eigenvalues --    0.20684   0.24992   0.33196   0.35913   0.39219
  Beta virt. eigenvalues --    0.42754   0.47573   0.56799   0.57624   0.60513
  Beta virt. eigenvalues --    0.63139   0.64589   0.73348   0.83132   0.85641
  Beta virt. eigenvalues --    0.95001   1.01146   1.05263   1.24405   1.31611
  Beta virt. eigenvalues --    1.39636   1.40036   1.44786   1.54309   1.56536
  Beta virt. eigenvalues --    1.60051   1.74041   1.76534   1.92560   1.93426
  Beta virt. eigenvalues --    2.02945   2.07216   2.11894   2.22759   2.47593
  Beta virt. eigenvalues --    2.50653   2.52712   2.55341   2.62944   2.74548
  Beta virt. eigenvalues --    2.80302   2.91512   2.95109   3.11004   3.30742
  Beta virt. eigenvalues --    3.35993   3.50662   3.68653   3.81903   4.09640
  Beta virt. eigenvalues --    4.86249   4.97424   5.55936  23.72596  23.94581
  Beta virt. eigenvalues --   49.91848
          Condensed to atoms (all electrons):
               1          2          3          4          5          6
     1  O    7.836897  -0.092550   0.569758   0.004796   0.009236  -0.049977
     2  C   -0.092550   5.282552   0.390254   0.350963   0.369461  -0.114410
     3  C    0.569758   0.390254   4.568780  -0.017896  -0.026034   0.393511
     4  H    0.004796   0.350963  -0.017896   0.554025  -0.024678   0.004622
     5  H    0.009236   0.369461  -0.026034  -0.024678   0.520199   0.010348
     6  H   -0.049977  -0.114410   0.393511   0.004622   0.010348   0.682736
          Atomic-Atomic Spin Densities.
               1          2          3          4          5          6
     1  O    0.408695  -0.020991  -0.027859  -0.000162   0.000314   0.001023
     2  C   -0.020991   0.859736   0.021202   0.002798  -0.000058   0.000540
     3  C   -0.027859   0.021202  -0.144122  -0.001077  -0.001009   0.004137
     4  H   -0.000162   0.002798  -0.001077  -0.043275   0.003186   0.000149
     5  H    0.000314  -0.000058  -0.001009   0.003186  -0.040302  -0.000306
     6  H    0.001023   0.000540   0.004137   0.000149  -0.000306  -0.004504
 Mulliken charges and spin densities:
               1          2
     1  O   -0.278161   0.361019
     2  C   -0.186271   0.863227
     3  C    0.121627  -0.148728
     4  H    0.128168  -0.038382
     5  H    0.141468  -0.038176
     6  H    0.073169   0.001040
 Sum of Mulliken charges =   0.00000   1.00000
 Mulliken charges and spin densities with hydrogens summed into heavy atoms:
               1          2
     1  O   -0.278161   0.361019
     2  C    0.083365   0.786669
     3  C    0.194796  -0.147688
 APT charges:
               1
     1  O   -0.102262
     2  C   -0.516584
     3  C   -0.408139
     4  H    0.415414
     5  H    0.326603
     6  H    0.284968
 Sum of APT charges =   0.00000
 APT charges with hydrogens summed into heavy atoms:
               1
     1  O   -0.102262
     2  C    0.225432
     3  C   -0.123171
 Electronic spatial extent (au):  <R**2>=            150.2715
 Charge=              0.0000 electrons
 Dipole moment (field-independent basis, Debye):
    X=              2.6858    Y=              0.8758    Z=              0.0000  Tot=              2.8250
 Quadrupole moment (field-independent basis, Debye-Ang):
   XX=            -18.9784   YY=            -16.7032   ZZ=            -18.2490
   XY=             -0.9148   XZ=              0.0000   YZ=              0.0000
 Traceless Quadrupole moment (field-independent basis, Debye-Ang):
   XX=             -1.0016   YY=              1.2737   ZZ=             -0.2721
   XY=             -0.9148   XZ=              0.0000   YZ=              0.0000
 Octapole moment (field-independent basis, Debye-Ang**2):
  XXX=              2.5670  YYY=             -1.0515  ZZZ=              0.0000  XYY=             -0.1406
  XXY=              0.8318  XXZ=              0.0000  XZZ=             -2.5677  YZZ=             -0.3599
  YYZ=              0.0000  XYZ=              0.0000
 Hexadecapole moment (field-independent basis, Debye-Ang**3):
 XXXX=           -128.6830 YYYY=            -40.3861 ZZZZ=            -17.5740 XXXY=              3.2514
 XXXZ=              0.0000 YYYX=             -1.0743 YYYZ=              0.0000 ZZZX=              0.0000
 ZZZY=              0.0000 XXYY=            -27.7066 XXZZ=            -25.4860 YYZZ=            -10.5871
 XXYZ=              0.0000 YYXZ=              0.0000 ZZXY=              0.5921
 N-N= 6.360139048218D+01 E-N=-4.860978148583D+02  KE= 1.527094382349D+02
  Exact polarizability:   0.000   0.000   0.000   0.000   0.000   0.000
 Approx polarizability:  53.781   4.538  34.049   0.000   0.000  17.961
                          Isotropic Fermi Contact Couplings
        Atom                 a.u.       MegaHertz       Gauss      10(-4) cm-1
     1  O(17)              0.02583     -15.65917      -5.58758      -5.22334
     2  C(13)              0.04756      53.46340      19.07707      17.83347
     3  C(13)             -0.03691     -41.49040     -14.80480     -13.83971
     4  H(1)              -0.01116     -49.87336     -17.79605     -16.63596
     5  H(1)              -0.01099     -49.14114     -17.53478     -16.39172
     6  H(1)               0.00025       1.10208       0.39325       0.36761
 --------------------------------------------------------
       Center         ----  Spin Dipole Couplings  ----
                      3XX-RR        3YY-RR        3ZZ-RR
 --------------------------------------------------------
     1   Atom       -0.733405     -0.736754      1.470158
     2   Atom       -0.454877     -0.456828      0.911706
     3   Atom        0.095690      0.044048     -0.139738
     4   Atom        0.025374     -0.021271     -0.004103
     5   Atom       -0.052883      0.058565     -0.005682
     6   Atom        0.006724      0.003274     -0.009998
 --------------------------------------------------------
                        XY            XZ            YZ
 --------------------------------------------------------
     1   Atom        0.003960      0.000000      0.000001
     2   Atom        0.002855      0.000000     -0.000001
     3   Atom        0.009425      0.000000      0.000000
     4   Atom        0.056034      0.000000      0.000000
     5   Atom       -0.012238      0.000000      0.000000
     6   Atom       -0.008455      0.000000      0.000000
 --------------------------------------------------------


 ---------------------------------------------------------------------------------
              Anisotropic Spin Dipole Couplings in Principal Axis System
 ---------------------------------------------------------------------------------

       Atom             a.u.   MegaHertz   Gauss  10(-4) cm-1        Axes

              Baa    -0.7394    53.501    19.090    17.846 -0.5525  0.8335  0.0000
     1 O(17)  Bbb    -0.7308    52.879    18.868    17.638  0.8335  0.5525  0.0000
              Bcc     1.4702  -106.380   -37.959   -35.484  0.0000  0.0000  1.0000
 
              Baa    -0.4589   -61.576   -21.972   -20.540 -0.5816  0.8134  0.0000
     2 C(13)  Bbb    -0.4528   -60.766   -21.683   -20.269  0.8134  0.5816  0.0000
              Bcc     0.9117   122.342    43.655    40.809  0.0000  0.0000  1.0000
 
              Baa    -0.1397   -18.752    -6.691    -6.255  0.0000  0.0000  1.0000
     3 C(13)  Bbb     0.0424     5.687     2.029     1.897 -0.1741  0.9847  0.0000
              Bcc     0.0974    13.064     4.662     4.358  0.9847  0.1741  0.0000
 
              Baa    -0.0586   -31.289   -11.165   -10.437 -0.5549  0.8319  0.0000
     4 H(1)   Bbb    -0.0041    -2.189    -0.781    -0.730  0.0000  0.0000  1.0000
              Bcc     0.0627    33.478    11.946    11.167  0.8319  0.5549  0.0000
 
              Baa    -0.0542   -28.924   -10.321    -9.648  0.9942  0.1079  0.0000
     5 H(1)   Bbb    -0.0057    -3.032    -1.082    -1.011  0.0000  0.0000  1.0000
              Bcc     0.0599    31.956    11.403    10.659 -0.1079  0.9942  0.0000
 
              Baa    -0.0100    -5.334    -1.903    -1.779  0.0000  0.0000  1.0000
     6 H(1)   Bbb    -0.0036    -1.937    -0.691    -0.646  0.6325  0.7746  0.0000
              Bcc     0.0136     7.271     2.595     2.425  0.7746 -0.6325  0.0000
 

 ---------------------------------------------------------------------------------

 No NMR shielding tensors so no spin-rotation constants.
 Leave Link  601 at Sat Feb 16 14:13:15 2019, MaxMem=   196608000 cpu:         7.9
 (Enter /cm/shared/c3ddb/gaussian/09.d01/g09/l701.exe)
 Compute integral second derivatives.
 ... and contract with generalized density number  0.
 Leave Link  701 at Sat Feb 16 14:13:16 2019, MaxMem=   196608000 cpu:         4.2
 (Enter /cm/shared/c3ddb/gaussian/09.d01/g09/l702.exe)
 L702 exits ... SP integral derivatives will be done elsewhere.
 Leave Link  702 at Sat Feb 16 14:13:16 2019, MaxMem=   196608000 cpu:         0.3
 (Enter /cm/shared/c3ddb/gaussian/09.d01/g09/l703.exe)
 Compute integral second derivatives, UseDBF=F ICtDFT=           0.
 Integral derivatives from FoFJK, PRISM(SPDF).
 Calling FoFJK, ICntrl=    100147 FMM=F ISym2X=0 I1Cent= 0 IOpClX= 1 NMat=1 NMatS=1 NMatT=0.
 FoFJK:  IHMeth= 1 ICntrl=  100147 DoSepK=F KAlg= 0 I1Cent=   0 FoldK=F
 IRaf=         0 NMat=   1 IRICut=       1 DoRegI=T DoRafI=F ISym2E= 0.
 FoFCou: FMM=F IPFlag=           0 FMFlag=      100000 FMFlg1=         800
         NFxFlg=           0 DoJE=F BraDBF=F KetDBF=F FulRan=T
         wScrn=  0.000000 ICntrl=  100147 IOpCl=  1 I1Cent=           0 NGrid=           0
         NMat0=    1 NMatS0=      1 NMatT0=    0 NMatD0=    1 NMtDS0=    0 NMtDT0=    0
 Symmetry not used in FoFCou.
 Leave Link  703 at Sat Feb 16 14:13:22 2019, MaxMem=   196608000 cpu:        44.0
 (Enter /cm/shared/c3ddb/gaussian/09.d01/g09/l716.exe)
 Dipole        = 1.05668439D+00 3.44572268D-01-2.90361646D-07
 Polarizability= 0.00000000D+00 0.00000000D+00 0.00000000D+00
                 0.00000000D+00 0.00000000D+00 0.00000000D+00
 ***** Axes restored to original set *****
 -------------------------------------------------------------------
 Center     Atomic                   Forces (Hartrees/Bohr)
 Number     Number              X              Y              Z
 -------------------------------------------------------------------
      1        8           0.000361115    0.000033270   -0.000107573
      2        6          -0.000502904   -0.000366049   -0.000070358
      3        6           0.000062240    0.000105842    0.000050431
      4        1           0.000338848    0.000086218   -0.000063064
      5        1          -0.000054217    0.000284450    0.000215482
      6        1          -0.000205082   -0.000143730   -0.000024918
 -------------------------------------------------------------------
 Cartesian Forces:  Max     0.000502904 RMS     0.000220152
 Force constants in Cartesian coordinates: 
                1             2             3             4             5 
      1  0.611271D+00
      2  0.143512D+00  0.950953D-01
      3 -0.114695D+00 -0.340283D-03  0.615108D-01
      4 -0.752332D-01 -0.570485D-01 -0.581161D-02  0.600013D+00
      5 -0.844023D-01 -0.124838D-01  0.989597D-02  0.632267D-01  0.433513D+00
      6 -0.246523D-01  0.118862D-04  0.263434D-01 -0.145455D+00  0.222746D+00
      7 -0.492836D+00 -0.979522D-01  0.923313D-01 -0.837295D-01  0.639819D-02
      8 -0.568188D-01 -0.100196D+00 -0.136298D-01 -0.460424D-01 -0.199744D+00
      9  0.120663D+00  0.123337D-02 -0.933506D-01 -0.240241D-01 -0.968767D-01
     10 -0.130445D-02 -0.432463D-02 -0.175953D-02 -0.318817D+00 -0.615862D-01
     11 -0.415887D-02 -0.484863D-02 -0.326233D-02 -0.577959D-01 -0.596319D-01
     12 -0.164536D-02 -0.320244D-02  0.458342D-03  0.677902D-01 -0.432621D-02
     13  0.748397D-03  0.239250D-02 -0.119049D-03 -0.132507D+00  0.874204D-01
     14  0.209140D-03  0.229189D-02  0.435566D-02  0.846862D-01 -0.152375D+00
     15 -0.162293D-02  0.356671D-02 -0.109845D-02  0.971728D-01 -0.119314D+00
     16 -0.426461D-01  0.134211D-01  0.300535D-01  0.102738D-01 -0.110567D-01
     17  0.165921D-02  0.201411D-01  0.298084D-02  0.129740D-01 -0.927798D-02
     18  0.219521D-01 -0.126924D-02  0.613645D-02  0.103279D-01 -0.121245D-01
                6             7             8             9            10 
      6  0.282933D+00
      7  0.120958D-01  0.670187D+00
      8 -0.779278D-01  0.403386D-01  0.448563D+00
      9 -0.120496D+00 -0.160123D+00  0.190957D+00  0.339547D+00
     10  0.651796D-01 -0.552842D-02  0.486301D-02  0.793671D-02  0.331618D+00
     11 -0.569579D-02 -0.220363D-01  0.673332D-02  0.766434D-02  0.666426D-01
     12 -0.485172D-01 -0.105909D-01 -0.205552D-02  0.957758D-02 -0.701873D-01
     13  0.990560D-01  0.108726D-01 -0.956435D-02 -0.773698D-02 -0.613548D-02
     14 -0.118326D+00  0.167297D-01 -0.955086D-02 -0.179218D-01 -0.548327D-02
     15 -0.142305D+00  0.103739D-01 -0.842056D-02 -0.185630D-02  0.127717D-03
     16 -0.622391D-02 -0.989659D-01  0.672240D-01  0.632843D-01  0.167833D-03
     17 -0.208078D-01  0.565220D-01 -0.145805D+00 -0.850560D-01 -0.111485D-03
     18  0.204242D-02  0.559130D-01 -0.889231D-01 -0.133421D+00 -0.129720D-02
               11            12            13            14            15 
     11  0.508223D-01
     12  0.379874D-02  0.383237D-01
     13  0.156927D-01  0.147133D-01  0.127556D+00
     14  0.772995D-02  0.408896D-02 -0.929085D-01  0.154006D+00
     15 -0.356281D-02  0.216987D-02 -0.105392D+00  0.130703D+00  0.141095D+00
     16  0.165583D-02 -0.799144D-04 -0.534518D-03 -0.323325D-02 -0.659290D-03
     17 -0.805091D-03  0.169647D-02 -0.303271D-02 -0.210187D-02 -0.297201D-02
     18  0.105786D-02 -0.201225D-02 -0.521158D-03 -0.289955D-02  0.199521D-02
               16            17            18 
     16  0.131705D+00
     17 -0.680110D-01  0.137849D+00
     18 -0.863747D-01  0.104159D+00  0.125259D+00
 FormGI is forming the generalized inverse of G from B-inverse, IUseBI=4.
 Force constants in internal coordinates: 
                1             2             3             4             5 
      1  0.668734D+00
      2  0.122732D+00  0.339762D+00
      3  0.222992D-02  0.135224D-02  0.360865D+00
      4  0.104831D-02  0.311855D-02 -0.430739D-03  0.362082D+00
      5  0.388136D-01  0.737585D-02  0.101101D-02 -0.102285D-03  0.304541D+00
      6  0.734745D-02  0.664612D-02  0.495153D-02 -0.980368D-02 -0.562025D-03
      7 -0.461935D-02  0.674631D-02 -0.999264D-02  0.586360D-02  0.247783D-02
      8 -0.272810D-02 -0.133924D-01  0.504112D-02  0.394008D-02 -0.191581D-02
      9  0.326131D-01  0.101454D-01  0.758059D-02 -0.673227D-02 -0.133426D-01
     10  0.130327D-01 -0.215094D-01 -0.384779D-02  0.654181D-03  0.181324D-02
     11 -0.456458D-01  0.113641D-01 -0.373281D-02  0.607809D-02  0.115294D-01
     12  0.000000D+00  0.000000D+00  0.000000D+00  0.000000D+00  0.000000D+00
     13  0.000000D+00  0.000000D+00  0.000000D+00  0.000000D+00  0.000000D+00
     14  0.000000D+00  0.000000D+00  0.000000D+00  0.000000D+00  0.000000D+00
     15  0.000000D+00  0.000000D+00  0.000000D+00  0.000000D+00  0.000000D+00
                6             7             8             9            10 
      6  0.730753D-01
      7 -0.385477D-01  0.702888D-01
      8 -0.345276D-01 -0.317411D-01  0.662687D-01
      9  0.194868D-01 -0.197079D-01  0.221148D-03  0.145160D+00
     10 -0.481088D-02  0.253863D-02  0.227225D-02 -0.811982D-01  0.119244D+00
     11 -0.146759D-01  0.171693D-01 -0.249340D-02 -0.639618D-01 -0.380455D-01
     12  0.000000D+00  0.000000D+00  0.000000D+00  0.000000D+00  0.000000D+00
     13  0.000000D+00  0.000000D+00  0.000000D+00  0.000000D+00  0.000000D+00
     14  0.000000D+00  0.000000D+00  0.000000D+00  0.000000D+00  0.000000D+00
     15  0.000000D+00  0.000000D+00  0.000000D+00  0.000000D+00  0.000000D+00
               11            12            13            14            15 
     11  0.102007D+00
     12  0.000000D+00  0.237619D-01
     13  0.000000D+00 -0.845236D-02  0.254216D-01
     14  0.000000D+00  0.126510D-01 -0.208282D-01  0.274730D-01
     15  0.000000D+00 -0.195632D-01  0.130458D-01 -0.600621D-02  0.266027D-01
 Leave Link  716 at Sat Feb 16 14:13:23 2019, MaxMem=   196608000 cpu:         0.7
 (Enter /cm/shared/c3ddb/gaussian/09.d01/g09/l103.exe)

 GradGradGradGradGradGradGradGradGradGradGradGradGradGradGradGradGradGrad
 Berny optimization.
 Red2BG is reusing G-inverse.
 Internal  Forces:  Max     0.000373781 RMS     0.000195315
 Search for a local minimum.
 Step number   1 out of a maximum of   25 on scan point     1 out of    37
 All quantities printed in internal units (Hartrees-Bohrs-Radians)
 RMS Force = .20217D-03 SwitMx=.10000D-02 MixMth= 2
 Mixed Optimization -- En-DIIS/RFO-DIIS
 Second derivative matrix not updated -- analytic derivatives used.
 The second derivative matrix:
                          R1        R2        R3        R4        R5
           R1           0.66873
           R2           0.12273   0.33976
           R3           0.00223   0.00135   0.36087
           R4           0.00105   0.00312  -0.00043   0.36208
           R5           0.03881   0.00738   0.00101  -0.00010   0.30454
           A1           0.00735   0.00665   0.00495  -0.00980  -0.00056
           A2          -0.00462   0.00675  -0.00999   0.00586   0.00248
           A3          -0.00273  -0.01339   0.00504   0.00394  -0.00192
           A4           0.03261   0.01015   0.00758  -0.00673  -0.01334
           A5           0.01303  -0.02151  -0.00385   0.00065   0.00181
           A6          -0.04565   0.01136  -0.00373   0.00608   0.01153
           D1           0.00000   0.00000   0.00000   0.00000   0.00000
           D2           0.00000   0.00000   0.00000   0.00000   0.00000
           D3           0.00000   0.00000   0.00000   0.00000   0.00000
           D4           0.00000   0.00000   0.00000   0.00000   0.00000
                          A1        A2        A3        A4        A5
           A1           0.07308
           A2          -0.03855   0.07029
           A3          -0.03453  -0.03174   0.06627
           A4           0.01949  -0.01971   0.00022   0.14516
           A5          -0.00481   0.00254   0.00227  -0.08120   0.11924
           A6          -0.01468   0.01717  -0.00249  -0.06396  -0.03805
           D1           0.00000   0.00000   0.00000   0.00000   0.00000
           D2           0.00000   0.00000   0.00000   0.00000   0.00000
           D3           0.00000   0.00000   0.00000   0.00000   0.00000
           D4           0.00000   0.00000   0.00000   0.00000   0.00000
                          A6        D1        D2        D3        D4
           A6           0.10201
           D1           0.00000   0.02376
           D2           0.00000  -0.00845   0.02542
           D3           0.00000   0.01265  -0.02083   0.02747
           D4           0.00000  -0.01956   0.01305  -0.00601   0.02660
 ITU=  0
     Eigenvalues ---    0.02029   0.05129   0.09250   0.09974   0.14133
     Eigenvalues ---    0.22056   0.30348   0.31029   0.36124   0.36449
     Eigenvalues ---    0.718401000.000001000.000001000.000001000.00000
 RFO step:  Lambda=-2.10287789D-06 EMin= 2.02877292D-02
 Linear search not attempted -- first point.
 Iteration  1 RMS(Cart)=  0.00091133 RMS(Int)=  0.00000051
 Iteration  2 RMS(Cart)=  0.00000051 RMS(Int)=  0.00000000
 Iteration  1 RMS(Cart)=  0.00000000 RMS(Int)=  0.00000000
 ITry= 1 IFail=0 DXMaxC= 1.69D-03 DCOld= 1.00D+10 DXMaxT= 3.00D-01 DXLimC= 3.00D+00 Rises=F
 Variable       Old X    -DE/DX   Delta X   Delta X   Delta X     New X
                                 (Linear)    (Quad)   (Total)
    R1        2.32959  -0.00037   0.00000  -0.00034  -0.00034   2.32925
    R2        2.69182  -0.00006   0.00000  -0.00030  -0.00030   2.69153
    R3        2.04698   0.00035   0.00000   0.00105   0.00105   2.04803
    R4        2.04691   0.00033   0.00000   0.00087   0.00087   2.04778
    R5        2.09168  -0.00001   0.00000  -0.00008  -0.00008   2.09160
    A1        2.11879  -0.00007   0.00000  -0.00031  -0.00031   2.11848
    A2        2.07625   0.00018   0.00000   0.00150   0.00150   2.07775
    A3        2.08815  -0.00011   0.00000  -0.00119  -0.00119   2.08696
    A4        2.14831  -0.00007   0.00000  -0.00024  -0.00024   2.14807
    A5        2.10177  -0.00023   0.00000  -0.00150  -0.00150   2.10027
    A6        2.03310   0.00030   0.00000   0.00174   0.00174   2.03485
    D1        3.14159   0.00000   0.00000   0.00000   0.00000   3.14159
    D2        0.00000   0.00000   0.00000   0.00000   0.00000   0.00000
    D3        0.00000   0.00000   0.00000   0.00000   0.00000   0.00000
    D4       -3.14159   0.00000   0.00000   0.00000   0.00000   3.14159
         Item               Value     Threshold  Converged?
 Maximum Force            0.000374     0.000450     YES
 RMS     Force            0.000202     0.000300     YES
 Maximum Displacement     0.001692     0.001800     YES
 RMS     Displacement     0.000911     0.001200     YES
 Predicted change in Energy=-1.051439D-06
 Optimization completed.
    -- Stationary point found.
                           ----------------------------
                           !   Optimized Parameters   !
                           ! (Angstroms and Degrees)  !
 --------------------------                            --------------------------
 ! Name  Definition              Value          Derivative Info.                !
 --------------------------------------------------------------------------------
 ! R1    R(1,3)                  1.2328         -DE/DX =   -0.0004              !
 ! R2    R(2,3)                  1.4245         -DE/DX =   -0.0001              !
 ! R3    R(2,4)                  1.0832         -DE/DX =    0.0004              !
 ! R4    R(2,5)                  1.0832         -DE/DX =    0.0003              !
 ! R5    R(3,6)                  1.1069         -DE/DX =    0.0                 !
 ! A1    A(3,2,4)              121.3975         -DE/DX =   -0.0001              !
 ! A2    A(3,2,5)              118.9601         -DE/DX =    0.0002              !
 ! A3    A(4,2,5)              119.6424         -DE/DX =   -0.0001              !
 ! A4    A(1,3,2)              123.089          -DE/DX =   -0.0001              !
 ! A5    A(1,3,6)              120.4226         -DE/DX =   -0.0002              !
 ! A6    A(2,3,6)              116.4883         -DE/DX =    0.0003              !
 ! D1    D(4,2,3,1)            180.0            -DE/DX =    0.0                 !
 ! D2    D(4,2,3,6)              0.0            -DE/DX =    0.0                 !
 ! D3    D(5,2,3,1)              0.0001         -DE/DX =    0.0                 !
 ! D4    D(5,2,3,6)            180.0001         -DE/DX =    0.0                 !
 --------------------------------------------------------------------------------
 Lowest energy point so far.  Saving SCF results.
 Iteration  1 RMS(Cart)=  0.03175812 RMS(Int)=  0.02258300
 Iteration  2 RMS(Cart)=  0.00128760 RMS(Int)=  0.02254276
 Iteration  3 RMS(Cart)=  0.00000055 RMS(Int)=  0.02254276
 Iteration  1 RMS(Cart)=  0.00797112 RMS(Int)=  0.00565782
 Iteration  2 RMS(Cart)=  0.00200535 RMS(Int)=  0.00616751
 Iteration  3 RMS(Cart)=  0.00050464 RMS(Int)=  0.00643818
 Iteration  4 RMS(Cart)=  0.00012700 RMS(Int)=  0.00651374
 Iteration  5 RMS(Cart)=  0.00003196 RMS(Int)=  0.00653320
 Iteration  6 RMS(Cart)=  0.00000805 RMS(Int)=  0.00653813
 Iteration  7 RMS(Cart)=  0.00000202 RMS(Int)=  0.00653937
 Iteration  8 RMS(Cart)=  0.00000051 RMS(Int)=  0.00653968
 GradGradGradGradGradGradGradGradGradGradGradGradGradGradGradGradGradGrad

 Leave Link  103 at Sat Feb 16 14:13:24 2019, MaxMem=   196608000 cpu:        11.5
 (Enter /cm/shared/c3ddb/gaussian/09.d01/g09/l202.exe)
                          Input orientation:                          
 ---------------------------------------------------------------------
 Center     Atomic      Atomic             Coordinates (Angstroms)
 Number     Number       Type             X           Y           Z
 ---------------------------------------------------------------------
      1          8           0        0.976226   -0.128063    0.224583
      2          6           0        2.825819    1.247326    0.606773
      3          6           0        2.175409    0.104636    0.059194
      4          1           0        3.835858    1.512744    0.316579
      5          1           0        2.259788    1.918946    1.241461
      6          1           0        2.774890   -0.522240   -0.628372
 ---------------------------------------------------------------------
                    Distance matrix (angstroms):
                    1          2          3          4          5
     1  O    0.000000
     2  C    2.336399   0.000000
     3  C    1.232697   1.424295   0.000000
     4  H    3.298213   1.083900   2.192284   0.000000
     5  H    2.621416   1.083649   2.167163   1.872006   0.000000
     6  H    2.029310   2.158597   1.106841   2.481884   3.117851
                    6
     6  H    0.000000
 Stoichiometry    C2H3O(2)
 Framework group  C1[X(C2H3O)]
 Deg. of freedom    12
 Full point group                 C1      NOp   1
 RotChk:  IX=0 Diff= 4.54D-02
 Largest Abelian subgroup         C1      NOp   1
 Largest concise Abelian subgroup C1      NOp   1
                         Standard orientation:                         
 ---------------------------------------------------------------------
 Center     Atomic      Atomic             Coordinates (Angstroms)
 Number     Number       Type             X           Y           Z
 ---------------------------------------------------------------------
      1          8           0       -1.166613   -0.264960    0.016003
      2          6           0        1.167723   -0.170735   -0.011500
      3          6           0       -0.134085    0.406805   -0.030481
      4          1           0        2.053548    0.442402    0.107736
      5          1           0        1.262469   -1.250230   -0.008878
      6          1           0       -0.184939    1.511084    0.025001
 ---------------------------------------------------------------------
 Rotational constants (GHZ):     67.1398802     11.4691202      9.8059128
 Leave Link  202 at Sat Feb 16 14:13:24 2019, MaxMem=   196608000 cpu:         0.6
 (Enter /cm/shared/c3ddb/gaussian/09.d01/g09/l301.exe)
 Standard basis: 6-311G(2d,d,p) (5D, 7F)
 Ernie: Thresh=  0.10000D-02 Tol=  0.10000D-05 Strict=F.
 There are    75 symmetry adapted cartesian basis functions of A   symmetry.
 There are    72 symmetry adapted basis functions of A   symmetry.
    72 basis functions,   120 primitive gaussians,    75 cartesian basis functions
    12 alpha electrons       11 beta electrons
       nuclear repulsion energy        63.6149296172 Hartrees.
 IExCor=  402 DFT=T Ex+Corr=B3LYP ExCW=0 ScaHFX=  0.200000
 ScaDFX=  0.800000  0.720000  1.000000  0.810000 ScalE2=  1.000000  1.000000
 IRadAn=      0 IRanWt=     -1 IRanGd=            0 ICorTp=0 IEmpDi=  4
 NAtoms=    6 NActive=    6 NUniq=    6 SFac= 1.00D+00 NAtFMM=   60 NAOKFM=F Big=F
 Integral buffers will be    131072 words long.
 Raffenetti 2 integral format.
 Two-electron integral symmetry is turned on.
 Leave Link  301 at Sat Feb 16 14:13:25 2019, MaxMem=   196608000 cpu:         0.5
 (Enter /cm/shared/c3ddb/gaussian/09.d01/g09/l302.exe)
 NPDir=0 NMtPBC=     1 NCelOv=     1 NCel=       1 NClECP=     1 NCelD=      1
         NCelK=      1 NCelE2=     1 NClLst=     1 CellRange=     0.0.
 One-electron integrals computed using PRISM.
 NBasis=    72 RedAO= T EigKep=  4.24D-03  NBF=    72
 NBsUse=    72 1.00D-06 EigRej= -1.00D+00 NBFU=    72
 Precomputing XC quadrature grid using
 IXCGrd= 4 IRadAn=           0 IRanWt=          -1 IRanGd=           0 AccXCQ= 0.00D+00.
 Generated NRdTot=       0 NPtTot=           0 NUsed=           0 NTot=          32
 NSgBfM=    75    75    75    75    75 MxSgAt=     6 MxSgA2=     6.
 Leave Link  302 at Sat Feb 16 14:13:25 2019, MaxMem=   196608000 cpu:         5.0
 (Enter /cm/shared/c3ddb/gaussian/09.d01/g09/l303.exe)
 DipDrv:  MaxL=1.
 Leave Link  303 at Sat Feb 16 14:13:26 2019, MaxMem=   196608000 cpu:         1.2
 (Enter /cm/shared/c3ddb/gaussian/09.d01/g09/l401.exe)
 Initial guess from the checkpoint file:  "check.chk"
 B after Tr=     0.000000    0.000000    0.000000
         Rot=    1.000000   -0.000039    0.000008   -0.000277 Ang=  -0.03 deg.
 Guess basis will be translated and rotated to current coordinates.
 JPrj=2 DoOrth=T DoCkMO=T.
 Initial guess <Sx>= 0.0000 <Sy>= 0.0000 <Sz>= 0.5000 <S**2>= 0.7682 S= 0.5091
 Generating alternative initial guess.
 ExpMin= 1.03D-01 ExpMax= 8.59D+03 ExpMxC= 1.30D+03 IAcc=1 IRadAn=         1 AccDes= 0.00D+00
 Harris functional with IExCor=  402 and IRadAn=       1 diagonalized for initial guess.
 HarFok:  IExCor=  402 AccDes= 0.00D+00 IRadAn=         1 IDoV= 1 UseB2=F ITyADJ=14
 ICtDFT=  3500011 ScaDFX=  1.000000  1.000000  1.000000  1.000000
 FoFCou: FMM=F IPFlag=           0 FMFlag=      100000 FMFlg1=           0
         NFxFlg=           0 DoJE=T BraDBF=F KetDBF=T FulRan=T
         wScrn=  0.000000 ICntrl=     500 IOpCl=  0 I1Cent=   200000004 NGrid=           0
         NMat0=    1 NMatS0=      1 NMatT0=    0 NMatD0=    1 NMtDS0=    0 NMtDT0=    0
 Petite list used in FoFCou.
 Harris En= -153.217568332638    
 Leave Link  401 at Sat Feb 16 14:13:28 2019, MaxMem=   196608000 cpu:        13.6
 (Enter /cm/shared/c3ddb/gaussian/09.d01/g09/l502.exe)
 UHF open shell SCF:
 Using DIIS extrapolation, IDIIS=  1040.
 Integral symmetry usage will be decided dynamically.
 Keep R1 and R2 ints in memory in canonical form, NReq=7827000.
 IVT=       23978 IEndB=       23978 NGot=   196608000 MDV=   189675011
 LenX=   189675011 LenY=   189668945
 Requested convergence on RMS density matrix=1.00D-08 within  64 cycles.
 Requested convergence on MAX density matrix=1.00D-06.
 Requested convergence on             energy=1.00D-06.
 No special actions if energy rises.
 FoFCou: FMM=F IPFlag=           0 FMFlag=           0 FMFlg1=           0
         NFxFlg=           0 DoJE=F BraDBF=F KetDBF=F FulRan=T
         wScrn=  0.000000 ICntrl=     600 IOpCl=  0 I1Cent=           0 NGrid=           0
         NMat0=    1 NMatS0=   2628 NMatT0=    0 NMatD0=    1 NMtDS0=    0 NMtDT0=    0
 Symmetry not used in FoFCou.
 Integral accuracy reduced to 1.0D-05 until final iterations.

 Cycle   1  Pass 0  IDiag  1:
 E= -153.213803473693    
 DIIS: error= 3.21D-03 at cycle   1 NSaved=   1.
 NSaved= 1 IEnMin= 1 EnMin= -153.213803473693     IErMin= 1 ErrMin= 3.21D-03
 ErrMax= 3.21D-03  0.00D+00 EMaxC= 1.00D-01 BMatC= 4.73D-03 BMatP= 4.73D-03
 IDIUse=3 WtCom= 9.68D-01 WtEn= 3.21D-02
 Coeff-Com:  0.100D+01
 Coeff-En:   0.100D+01
 Coeff:      0.100D+01
 Gap=     0.764 Goal=   None    Shift=    0.000
 Gap=     0.770 Goal=   None    Shift=    0.000
 GapD=    0.764 DampG=2.000 DampE=1.000 DampFc=2.0000 IDamp=-1.
 RMSDP=5.75D-04 MaxDP=7.38D-03              OVMax= 2.80D-02

 Cycle   2  Pass 0  IDiag  1:
 E= -153.216014281686     Delta-E=       -0.002210807993 Rises=F Damp=F
 DIIS: error= 7.84D-04 at cycle   2 NSaved=   2.
 NSaved= 2 IEnMin= 2 EnMin= -153.216014281686     IErMin= 2 ErrMin= 7.84D-04
 ErrMax= 7.84D-04  0.00D+00 EMaxC= 1.00D-01 BMatC= 1.42D-04 BMatP= 4.73D-03
 IDIUse=3 WtCom= 9.92D-01 WtEn= 7.84D-03
 Coeff-Com: -0.689D-01 0.107D+01
 Coeff-En:   0.000D+00 0.100D+01
 Coeff:     -0.684D-01 0.107D+01
 Gap=     0.270 Goal=   None    Shift=    0.000
 Gap=     0.124 Goal=   None    Shift=    0.000
 RMSDP=1.85D-04 MaxDP=2.14D-03 DE=-2.21D-03 OVMax= 1.65D-02

 Cycle   3  Pass 0  IDiag  1:
 E= -153.216150634991     Delta-E=       -0.000136353305 Rises=F Damp=F
 DIIS: error= 3.97D-04 at cycle   3 NSaved=   3.
 NSaved= 3 IEnMin= 3 EnMin= -153.216150634991     IErMin= 3 ErrMin= 3.97D-04
 ErrMax= 3.97D-04  0.00D+00 EMaxC= 1.00D-01 BMatC= 4.01D-05 BMatP= 1.42D-04
 IDIUse=3 WtCom= 9.96D-01 WtEn= 3.97D-03
 Coeff-Com: -0.327D-01 0.293D+00 0.740D+00
 Coeff-En:   0.000D+00 0.000D+00 0.100D+01
 Coeff:     -0.326D-01 0.292D+00 0.741D+00
 Gap=     0.270 Goal=   None    Shift=    0.000
 Gap=     0.123 Goal=   None    Shift=    0.000
 RMSDP=7.84D-05 MaxDP=7.73D-04 DE=-1.36D-04 OVMax= 7.62D-03

 Cycle   4  Pass 0  IDiag  1:
 E= -153.216176372508     Delta-E=       -0.000025737517 Rises=F Damp=F
 DIIS: error= 3.21D-04 at cycle   4 NSaved=   4.
 NSaved= 4 IEnMin= 4 EnMin= -153.216176372508     IErMin= 4 ErrMin= 3.21D-04
 ErrMax= 3.21D-04  0.00D+00 EMaxC= 1.00D-01 BMatC= 2.95D-05 BMatP= 4.01D-05
 IDIUse=3 WtCom= 9.97D-01 WtEn= 3.21D-03
 Coeff-Com: -0.898D-02 0.128D-01 0.447D+00 0.549D+00
 Coeff-En:   0.000D+00 0.000D+00 0.000D+00 0.100D+01
 Coeff:     -0.895D-02 0.128D-01 0.446D+00 0.550D+00
 Gap=     0.270 Goal=   None    Shift=    0.000
 Gap=     0.124 Goal=   None    Shift=    0.000
 RMSDP=5.60D-05 MaxDP=5.88D-04 DE=-2.57D-05 OVMax= 5.26D-03

 Cycle   5  Pass 0  IDiag  1:
 E= -153.216191463658     Delta-E=       -0.000015091150 Rises=F Damp=F
 DIIS: error= 2.58D-04 at cycle   5 NSaved=   5.
 NSaved= 5 IEnMin= 5 EnMin= -153.216191463658     IErMin= 5 ErrMin= 2.58D-04
 ErrMax= 2.58D-04  0.00D+00 EMaxC= 1.00D-01 BMatC= 1.03D-05 BMatP= 2.95D-05
 IDIUse=3 WtCom= 9.97D-01 WtEn= 2.58D-03
 Coeff-Com:  0.128D-01-0.170D+00-0.142D+00 0.408D+00 0.891D+00
 Coeff-En:   0.000D+00 0.000D+00 0.000D+00 0.000D+00 0.100D+01
 Coeff:      0.128D-01-0.170D+00-0.141D+00 0.407D+00 0.892D+00
 Gap=     0.271 Goal=   None    Shift=    0.000
 Gap=     0.124 Goal=   None    Shift=    0.000
 RMSDP=7.47D-05 MaxDP=9.48D-04 DE=-1.51D-05 OVMax= 8.82D-03

 Cycle   6  Pass 0  IDiag  1:
 E= -153.216205671419     Delta-E=       -0.000014207760 Rises=F Damp=F
 DIIS: error= 1.35D-04 at cycle   6 NSaved=   6.
 NSaved= 6 IEnMin= 6 EnMin= -153.216205671419     IErMin= 6 ErrMin= 1.35D-04
 ErrMax= 1.35D-04  0.00D+00 EMaxC= 1.00D-01 BMatC= 1.65D-06 BMatP= 1.03D-05
 IDIUse=3 WtCom= 9.99D-01 WtEn= 1.35D-03
 Coeff-Com:  0.357D-03 0.199D-01-0.114D+00-0.178D+00 0.341D-01 0.124D+01
 Coeff-En:   0.000D+00 0.000D+00 0.000D+00 0.000D+00 0.000D+00 0.100D+01
 Coeff:      0.357D-03 0.199D-01-0.114D+00-0.178D+00 0.341D-01 0.124D+01
 Gap=     0.271 Goal=   None    Shift=    0.000
 Gap=     0.124 Goal=   None    Shift=    0.000
 RMSDP=5.14D-05 MaxDP=6.99D-04 DE=-1.42D-05 OVMax= 6.07D-03

 Cycle   7  Pass 0  IDiag  1:
 E= -153.216210461506     Delta-E=       -0.000004790087 Rises=F Damp=F
 DIIS: error= 6.59D-05 at cycle   7 NSaved=   7.
 NSaved= 7 IEnMin= 7 EnMin= -153.216210461506     IErMin= 7 ErrMin= 6.59D-05
 ErrMax= 6.59D-05  0.00D+00 EMaxC= 1.00D-01 BMatC= 6.20D-07 BMatP= 1.65D-06
 IDIUse=1 WtCom= 1.00D+00 WtEn= 0.00D+00
 Coeff-Com: -0.539D-02 0.886D-01-0.222D-02-0.268D+00-0.362D+00 0.635D+00
 Coeff-Com:  0.914D+00
 Coeff:     -0.539D-02 0.886D-01-0.222D-02-0.268D+00-0.362D+00 0.635D+00
 Coeff:      0.914D+00
 Gap=     0.271 Goal=   None    Shift=    0.000
 Gap=     0.124 Goal=   None    Shift=    0.000
 RMSDP=3.39D-05 MaxDP=4.71D-04 DE=-4.79D-06 OVMax= 4.01D-03

 Cycle   8  Pass 0  IDiag  1:
 E= -153.216211820935     Delta-E=       -0.000001359429 Rises=F Damp=F
 DIIS: error= 1.66D-05 at cycle   8 NSaved=   8.
 NSaved= 8 IEnMin= 8 EnMin= -153.216211820935     IErMin= 8 ErrMin= 1.66D-05
 ErrMax= 1.66D-05  0.00D+00 EMaxC= 1.00D-01 BMatC= 7.24D-08 BMatP= 6.20D-07
 IDIUse=1 WtCom= 1.00D+00 WtEn= 0.00D+00
 Coeff-Com: -0.150D-02 0.216D-01 0.223D-01-0.483D-01-0.108D+00-0.464D-01
 Coeff-Com:  0.279D+00 0.880D+00
 Coeff:     -0.150D-02 0.216D-01 0.223D-01-0.483D-01-0.108D+00-0.464D-01
 Coeff:      0.279D+00 0.880D+00
 Gap=     0.271 Goal=   None    Shift=    0.000
 Gap=     0.124 Goal=   None    Shift=    0.000
 RMSDP=9.10D-06 MaxDP=1.29D-04 DE=-1.36D-06 OVMax= 1.04D-03

 Initial convergence to 1.0D-05 achieved.  Increase integral accuracy.
 Cycle   9  Pass 1  IDiag  1:
 E= -153.216222240899     Delta-E=       -0.000010419964 Rises=F Damp=F
 DIIS: error= 6.35D-06 at cycle   1 NSaved=   1.
 NSaved= 1 IEnMin= 1 EnMin= -153.216222240899     IErMin= 1 ErrMin= 6.35D-06
 ErrMax= 6.35D-06  0.00D+00 EMaxC= 1.00D-01 BMatC= 2.51D-08 BMatP= 2.51D-08
 IDIUse=1 WtCom= 1.00D+00 WtEn= 0.00D+00
 Coeff-Com:  0.100D+01
 Coeff:      0.100D+01
 Gap=     0.271 Goal=   None    Shift=    0.000
 Gap=     0.124 Goal=   None    Shift=    0.000
 RMSDP=9.10D-06 MaxDP=1.29D-04 DE=-1.04D-05 OVMax= 1.05D-04

 Cycle  10  Pass 1  IDiag  1:
 E= -153.216222246492     Delta-E=       -0.000000005593 Rises=F Damp=F
 DIIS: error= 6.75D-06 at cycle   2 NSaved=   2.
 NSaved= 2 IEnMin= 2 EnMin= -153.216222246492     IErMin= 1 ErrMin= 6.35D-06
 ErrMax= 6.75D-06  0.00D+00 EMaxC= 1.00D-01 BMatC= 1.99D-08 BMatP= 2.51D-08
 IDIUse=1 WtCom= 1.00D+00 WtEn= 0.00D+00
 Coeff-Com:  0.465D+00 0.535D+00
 Coeff:      0.465D+00 0.535D+00
 Gap=     0.271 Goal=   None    Shift=    0.000
 Gap=     0.124 Goal=   None    Shift=    0.000
 RMSDP=9.40D-07 MaxDP=1.97D-05 DE=-5.59D-09 OVMax= 3.68D-05

 Cycle  11  Pass 1  IDiag  1:
 E= -153.216222251814     Delta-E=       -0.000000005322 Rises=F Damp=F
 DIIS: error= 2.48D-06 at cycle   3 NSaved=   3.
 NSaved= 3 IEnMin= 3 EnMin= -153.216222251814     IErMin= 3 ErrMin= 2.48D-06
 ErrMax= 2.48D-06  0.00D+00 EMaxC= 1.00D-01 BMatC= 1.17D-09 BMatP= 1.99D-08
 IDIUse=1 WtCom= 1.00D+00 WtEn= 0.00D+00
 Coeff-Com: -0.234D-01 0.134D+00 0.889D+00
 Coeff:     -0.234D-01 0.134D+00 0.889D+00
 Gap=     0.271 Goal=   None    Shift=    0.000
 Gap=     0.124 Goal=   None    Shift=    0.000
 RMSDP=5.28D-07 MaxDP=7.31D-06 DE=-5.32D-09 OVMax= 5.81D-05

 Cycle  12  Pass 1  IDiag  1:
 E= -153.216222252948     Delta-E=       -0.000000001134 Rises=F Damp=F
 DIIS: error= 1.67D-06 at cycle   4 NSaved=   4.
 NSaved= 4 IEnMin= 4 EnMin= -153.216222252948     IErMin= 4 ErrMin= 1.67D-06
 ErrMax= 1.67D-06  0.00D+00 EMaxC= 1.00D-01 BMatC= 3.46D-10 BMatP= 1.17D-09
 IDIUse=1 WtCom= 1.00D+00 WtEn= 0.00D+00
 Coeff-Com: -0.575D-01-0.808D-02 0.322D+00 0.743D+00
 Coeff:     -0.575D-01-0.808D-02 0.322D+00 0.743D+00
 Gap=     0.271 Goal=   None    Shift=    0.000
 Gap=     0.124 Goal=   None    Shift=    0.000
 RMSDP=3.24D-07 MaxDP=4.59D-06 DE=-1.13D-09 OVMax= 3.68D-05

 Cycle  13  Pass 1  IDiag  1:
 E= -153.216222253418     Delta-E=       -0.000000000470 Rises=F Damp=F
 DIIS: error= 1.27D-06 at cycle   5 NSaved=   5.
 NSaved= 5 IEnMin= 5 EnMin= -153.216222253418     IErMin= 5 ErrMin= 1.27D-06
 ErrMax= 1.27D-06  0.00D+00 EMaxC= 1.00D-01 BMatC= 1.16D-10 BMatP= 3.46D-10
 IDIUse=1 WtCom= 1.00D+00 WtEn= 0.00D+00
 Coeff-Com:  0.995D-02-0.731D-01-0.476D+00 0.101D-02 0.154D+01
 Coeff:      0.995D-02-0.731D-01-0.476D+00 0.101D-02 0.154D+01
 Gap=     0.271 Goal=   None    Shift=    0.000
 Gap=     0.124 Goal=   None    Shift=    0.000
 RMSDP=5.72D-07 MaxDP=8.19D-06 DE=-4.70D-10 OVMax= 6.74D-05

 Cycle  14  Pass 1  IDiag  1:
 E= -153.216222253864     Delta-E=       -0.000000000446 Rises=F Damp=F
 DIIS: error= 4.58D-07 at cycle   6 NSaved=   6.
 NSaved= 6 IEnMin= 6 EnMin= -153.216222253864     IErMin= 6 ErrMin= 4.58D-07
 ErrMax= 4.58D-07  0.00D+00 EMaxC= 1.00D-01 BMatC= 1.84D-11 BMatP= 1.16D-10
 IDIUse=1 WtCom= 1.00D+00 WtEn= 0.00D+00
 Coeff-Com:  0.996D-02-0.967D-02-0.114D+00-0.154D+00 0.250D+00 0.102D+01
 Coeff:      0.996D-02-0.967D-02-0.114D+00-0.154D+00 0.250D+00 0.102D+01
 Gap=     0.271 Goal=   None    Shift=    0.000
 Gap=     0.124 Goal=   None    Shift=    0.000
 RMSDP=1.93D-07 MaxDP=2.61D-06 DE=-4.46D-10 OVMax= 2.29D-05

 Cycle  15  Pass 1  IDiag  1:
 E= -153.216222253914     Delta-E=       -0.000000000050 Rises=F Damp=F
 DIIS: error= 2.65D-07 at cycle   7 NSaved=   7.
 NSaved= 7 IEnMin= 7 EnMin= -153.216222253914     IErMin= 7 ErrMin= 2.65D-07
 ErrMax= 2.65D-07  0.00D+00 EMaxC= 1.00D-01 BMatC= 2.53D-11 BMatP= 1.84D-11
 IDIUse=1 WtCom= 1.00D+00 WtEn= 0.00D+00
 Coeff-Com:  0.612D-02 0.548D-02 0.700D-04-0.116D+00-0.120D+00 0.780D+00
 Coeff-Com:  0.444D+00
 Coeff:      0.612D-02 0.548D-02 0.700D-04-0.116D+00-0.120D+00 0.780D+00
 Coeff:      0.444D+00
 Gap=     0.271 Goal=   None    Shift=    0.000
 Gap=     0.124 Goal=   None    Shift=    0.000
 RMSDP=6.75D-08 MaxDP=8.22D-07 DE=-5.02D-11 OVMax= 7.31D-06

 Cycle  16  Pass 1  IDiag  1:
 E= -153.216222253926     Delta-E=       -0.000000000012 Rises=F Damp=F
 DIIS: error= 8.13D-08 at cycle   8 NSaved=   8.
 NSaved= 8 IEnMin= 8 EnMin= -153.216222253926     IErMin= 8 ErrMin= 8.13D-08
 ErrMax= 8.13D-08  0.00D+00 EMaxC= 1.00D-01 BMatC= 1.71D-12 BMatP= 1.84D-11
 IDIUse=1 WtCom= 1.00D+00 WtEn= 0.00D+00
 Coeff-Com: -0.342D-02 0.106D-01 0.883D-01 0.182D-01-0.252D+00-0.102D+00
 Coeff-Com:  0.153D+00 0.109D+01
 Coeff:     -0.342D-02 0.106D-01 0.883D-01 0.182D-01-0.252D+00-0.102D+00
 Coeff:      0.153D+00 0.109D+01
 Gap=     0.271 Goal=   None    Shift=    0.000
 Gap=     0.124 Goal=   None    Shift=    0.000
 RMSDP=5.12D-08 MaxDP=6.36D-07 DE=-1.16D-11 OVMax= 6.03D-06

 Cycle  17  Pass 1  IDiag  1:
 E= -153.216222253928     Delta-E=       -0.000000000003 Rises=F Damp=F
 DIIS: error= 1.24D-08 at cycle   9 NSaved=   9.
 NSaved= 9 IEnMin= 9 EnMin= -153.216222253928     IErMin= 9 ErrMin= 1.24D-08
 ErrMax= 1.24D-08  0.00D+00 EMaxC= 1.00D-01 BMatC= 2.81D-14 BMatP= 1.71D-12
 IDIUse=1 WtCom= 1.00D+00 WtEn= 0.00D+00
 Coeff-Com: -0.363D-03 0.466D-03 0.428D-02 0.360D-02-0.529D-02-0.290D-01
 Coeff-Com: -0.225D-01 0.307D-01 0.102D+01
 Coeff:     -0.363D-03 0.466D-03 0.428D-02 0.360D-02-0.529D-02-0.290D-01
 Coeff:     -0.225D-01 0.307D-01 0.102D+01
 Gap=     0.271 Goal=   None    Shift=    0.000
 Gap=     0.124 Goal=   None    Shift=    0.000
 RMSDP=3.92D-09 MaxDP=4.64D-08 DE=-2.50D-12 OVMax= 3.90D-07

 SCF Done:  E(UB3LYP) =  -153.216222254     A.U. after   17 cycles
            NFock= 17  Conv=0.39D-08     -V/T= 2.0033
 <Sx>= 0.0000 <Sy>= 0.0000 <Sz>= 0.5000 <S**2>= 0.7684 S= 0.5092
 <L.S>= 0.000000000000E+00
 KE= 1.527091124436D+02 PE=-4.861222447404D+02 EE= 1.165819804257D+02
 Annihilation of the first spin contaminant:
 S**2 before annihilation     0.7684,   after     0.7501
 Leave Link  502 at Sat Feb 16 14:13:43 2019, MaxMem=   196608000 cpu:       103.8
 (Enter /cm/shared/c3ddb/gaussian/09.d01/g09/l508.exe)
 QCSCF skips out because SCF is already converged.
 Leave Link  508 at Sat Feb 16 14:13:43 2019, MaxMem=   196608000 cpu:         0.0
 (Enter /cm/shared/c3ddb/gaussian/09.d01/g09/l701.exe)
 Compute integral first derivatives.
 ... and contract with generalized density number  0.
 Leave Link  701 at Sat Feb 16 14:13:44 2019, MaxMem=   196608000 cpu:         4.1
 (Enter /cm/shared/c3ddb/gaussian/09.d01/g09/l702.exe)
 L702 exits ... SP integral derivatives will be done elsewhere.
 Leave Link  702 at Sat Feb 16 14:13:44 2019, MaxMem=   196608000 cpu:         0.2
 (Enter /cm/shared/c3ddb/gaussian/09.d01/g09/l703.exe)
 Compute integral first derivatives, UseDBF=F ICtDFT=           0.
 Integral derivatives from FoFJK, PRISM(SPDF).
 Calling FoFJK, ICntrl=      2127 FMM=F ISym2X=0 I1Cent= 0 IOpClX= 1 NMat=1 NMatS=1 NMatT=0.
 FoFJK:  IHMeth= 1 ICntrl=    2127 DoSepK=F KAlg= 0 I1Cent=   0 FoldK=F
 IRaf=         0 NMat=   1 IRICut=       1 DoRegI=T DoRafI=F ISym2E= 0.
 FoFCou: FMM=F IPFlag=           0 FMFlag=      100000 FMFlg1=         800
         NFxFlg=           0 DoJE=F BraDBF=F KetDBF=F FulRan=T
         wScrn=  0.000000 ICntrl=    2127 IOpCl=  1 I1Cent=           0 NGrid=           0
         NMat0=    1 NMatS0=      1 NMatT0=    0 NMatD0=    1 NMtDS0=    0 NMtDT0=    0
 Symmetry not used in FoFCou.
 Leave Link  703 at Sat Feb 16 14:13:45 2019, MaxMem=   196608000 cpu:         9.5
 (Enter /cm/shared/c3ddb/gaussian/09.d01/g09/l716.exe)
 Dipole        = 1.04882943D+00 3.45847170D-01 8.96222983D-03
 ***** Axes restored to original set *****
 -------------------------------------------------------------------
 Center     Atomic                   Forces (Hartrees/Bohr)
 Number     Number              X              Y              Z
 -------------------------------------------------------------------
      1        8           0.000975824   -0.002335436    0.003539471
      2        6          -0.000557234    0.000621244   -0.000395310
      3        6          -0.002296942    0.005347896   -0.008094649
      4        1           0.000691903   -0.001154611    0.001533233
      5        1           0.000265659   -0.000403687    0.000763353
      6        1           0.000920790   -0.002075406    0.002653903
 -------------------------------------------------------------------
 Cartesian Forces:  Max     0.008094649 RMS     0.002752409
 Leave Link  716 at Sat Feb 16 14:13:45 2019, MaxMem=   196608000 cpu:         0.2
 (Enter /cm/shared/c3ddb/gaussian/09.d01/g09/l103.exe)

 GradGradGradGradGradGradGradGradGradGradGradGradGradGradGradGradGradGrad
 Berny optimization.
 FormGI is forming the generalized inverse of G from B-inverse, IUseBI=4.
 Internal  Forces:  Max     0.005541455 RMS     0.002073080
 Search for a local minimum.
 Step number   1 out of a maximum of   25 on scan point     2 out of    37
 All quantities printed in internal units (Hartrees-Bohrs-Radians)
 RMS Force = .12936D-02 SwitMx=.10000D-02 MixMth= 1
 Mixed Optimization -- RFO/linear search
 Second derivative matrix not updated -- first step.
 The second derivative matrix:
                          R1        R2        R3        R4        R5
           R1           0.66873
           R2           0.12273   0.33976
           R3           0.00223   0.00135   0.36087
           R4           0.00105   0.00312  -0.00043   0.36208
           R5           0.03881   0.00738   0.00101  -0.00010   0.30454
           A1           0.00735   0.00665   0.00495  -0.00980  -0.00056
           A2          -0.00462   0.00675  -0.00999   0.00586   0.00248
           A3          -0.00273  -0.01339   0.00504   0.00394  -0.00192
           A4           0.03261   0.01015   0.00758  -0.00673  -0.01334
           A5           0.01303  -0.02151  -0.00385   0.00065   0.00181
           A6          -0.04565   0.01136  -0.00373   0.00608   0.01153
           D1           0.00000   0.00000   0.00000   0.00000   0.00000
           D2           0.00000   0.00000   0.00000   0.00000   0.00000
           D3           0.00000   0.00000   0.00000   0.00000   0.00000
           D4           0.00000   0.00000   0.00000   0.00000   0.00000
                          A1        A2        A3        A4        A5
           A1           0.07308
           A2          -0.03855   0.07029
           A3          -0.03453  -0.03174   0.06627
           A4           0.01949  -0.01971   0.00022   0.14516
[...]
           R5           1.10759   1.10855   1.10987   1.11152   1.11328
           A1         119.38903 119.78114 120.21508 120.58716 120.74930
           A2         120.90274 120.35018 119.65441 118.89918 118.16433
           A3         119.05572 118.42891 117.68703 116.93245 116.34311
           A4         123.17140 123.34498 123.64171 124.11064 124.64814
           A5         120.28114 120.23283 120.18552 120.14573 120.17078
           A6         116.40313 116.15320 115.80751 115.34880 114.83179
           D1          19.99996  29.99995  39.99996  49.99992  59.99994
           D2        -164.36425-155.95818-146.94571-137.22872-126.80592
           D3        -169.34576-163.90420-158.14145-151.98502-145.28443
           D4           6.29003  10.13767  14.91287  20.78633  27.90971
                          26        27        28        29        30
     Eigenvalues --  -153.20058-153.19798-153.19610-153.19895-153.20197
           R1           1.21151   1.20831   1.20618   1.21180   1.21520
           R2           1.46736   1.47506   1.48135   1.47467   1.46487
           R3           1.08493   1.08511   1.08477   1.08690   1.08687
           R4           1.08665   1.08670   1.08580   1.08635   1.08635
           R5           1.11501   1.11640   1.11687   1.11004   1.10908
           A1         120.66073 120.34502 120.07599 118.30523 118.80347
           A2         117.66909 117.58807 118.37289 117.14095 116.88199
           A3         116.07919 116.15331 117.12852 115.27514 115.36865
           A4         125.09722 125.39417 125.21862 121.89463 121.69443
           A5         120.16220 120.14767 120.11761 120.59329 120.60812
           A6         114.47173 114.29234 114.60691 117.27659 117.35404
           D1          69.99994  79.99997  89.99995 100.00002 110.00005
           D2        -115.97938-104.70211 -92.75451 -74.45301 -63.30761
           D3        -137.39186-128.09627-114.26580 -45.18881 -35.78125
           D4          36.62882  47.20165  62.97974 140.35816 150.91108
                          31        32        33        34        35
     Eigenvalues --  -153.20522-153.20840-153.21127-153.21364-153.21541
           R1           1.21915   1.22291   1.22635   1.22918   1.23112
           R2           1.45449   1.44518   1.43748   1.43146   1.42740
           R3           1.08638   1.08577   1.08512   1.08457   1.08414
           R4           1.08594   1.08540   1.08483   1.08436   1.08394
           R5           1.10835   1.10777   1.10733   1.10699   1.10688
           A1         119.44537 120.09391 120.54996 120.93692 121.18365
           A2         116.95787 117.29458 117.81498 118.28494 118.70015
           A3         115.99860 116.83073 117.72925 118.49544 119.08656
           A4         121.74680 121.96542 122.21024 122.49656 122.79698
           A5         120.51895 120.46529 120.40317 120.37940 120.35472
           A6         117.34193 117.18719 117.06868 116.90689 116.73775
           D1         120.00003 130.00003 139.99997 150.00000 160.00000
           D2         -52.84225 -42.93061 -33.54407 -24.65858 -16.18450
           D3         -28.41327 -22.38568 -17.25884 -12.58405  -8.28742
           D4         158.74446 164.68369 169.19713 172.75737 175.52809
                          36        37
     Eigenvalues --  -153.21650-153.21687
           R1           1.23223   1.23296
           R2           1.42505   1.42358
           R3           1.08387   1.08371
           R4           1.08372   1.08360
           R5           1.10683   1.10675
           A1         121.33565 121.30978
           A2         118.95703 119.09119
           A3         119.44772 119.59903
           A4         122.99898 123.09771
           A5         120.34084 120.29481
           A6         116.63018 116.60747
           D1         170.00001 179.99998
           D2          -8.01056  -0.03168
           D3          -4.11367  -0.01184
           D4         177.87576-180.04350
 Largest change from initial coordinates is atom    5       0.002 Angstoms.
 Leave Link  103 at Sat Feb 16 15:01:07 2019, MaxMem=   196608000 cpu:         7.3
 (Enter /cm/shared/c3ddb/gaussian/09.d01/g09/l202.exe)
                          Input orientation:                          
 ---------------------------------------------------------------------
 Center     Atomic      Atomic             Coordinates (Angstroms)
 Number     Number       Type             X           Y           Z
 ---------------------------------------------------------------------
      1          8           0        2.501746   -0.631033   -0.784767
      2          6           0        2.854103    1.255534    0.549551
      3          6           0        2.093230    0.148170    0.079033
      4          1           0        2.466338    1.922615    1.310520
      5          1           0        3.840169    1.431040    0.135947
      6          1           0        1.092404    0.007023    0.529934
 ---------------------------------------------------------------------
                    Distance matrix (angstroms):
                    1          2          3          4          5
     1  O    0.000000
     2  C    2.337456   0.000000
     3  C    1.232961   1.423577   0.000000
     4  H    3.303423   1.083712   2.191900   0.000000
     5  H    2.625116   1.083604   2.168131   1.873148   0.000000
     6  H    2.030222   2.159340   1.106747   2.483245   3.119819
                    6
     6  H    0.000000
 Stoichiometry    C2H3O(2)
 Framework group  C1[X(C2H3O)]
 Deg. of freedom    12
 Full point group                 C1      NOp   1
 RotChk:  IX=0 Diff= 1.96D-15
 Largest Abelian subgroup         C1      NOp   1
 Largest concise Abelian subgroup C1      NOp   1
                         Standard orientation:                         
 ---------------------------------------------------------------------
 Center     Atomic      Atomic             Coordinates (Angstroms)
 Number     Number       Type             X           Y           Z
 ---------------------------------------------------------------------
      1          8           0       -1.167972   -0.264401    0.000001
      2          6           0        1.167640   -0.171579   -0.000022
      3          6           0       -0.133379    0.406279   -0.000072
      4          1           0        2.058161    0.446001   -0.000089
      5          1           0        1.264765   -1.250822    0.000282
      6          1           0       -0.184717    1.511834    0.000363
 ---------------------------------------------------------------------
 Rotational constants (GHZ):     67.3816479     11.4582239      9.7929385
 Leave Link  202 at Sat Feb 16 15:01:07 2019, MaxMem=   196608000 cpu:         0.3
 (Enter /cm/shared/c3ddb/gaussian/09.d01/g09/l601.exe)
 Copying SCF densities to generalized density rwf, IOpCl= 1 IROHF=0.

 **********************************************************************

            Population analysis using the SCF density.

 **********************************************************************

 Orbital symmetries:
 Alpha Orbitals:
       Occupied  (A) (A) (A) (A) (A) (A) (A) (A) (A) (A) (A) (A)
       Virtual   (A) (A) (A) (A) (A) (A) (A) (A) (A) (A) (A) (A)
                 (A) (A) (A) (A) (A) (A) (A) (A) (A) (A) (A) (A)
                 (A) (A) (A) (A) (A) (A) (A) (A) (A) (A) (A) (A)
                 (A) (A) (A) (A) (A) (A) (A) (A) (A) (A) (A) (A)
                 (A) (A) (A) (A) (A) (A) (A) (A) (A) (A) (A) (A)
 Beta  Orbitals:
       Occupied  (A) (A) (A) (A) (A) (A) (A) (A) (A) (A) (A)
       Virtual   (A) (A) (A) (A) (A) (A) (A) (A) (A) (A) (A) (A)
                 (A) (A) (A) (A) (A) (A) (A) (A) (A) (A) (A) (A)
                 (A) (A) (A) (A) (A) (A) (A) (A) (A) (A) (A) (A)
                 (A) (A) (A) (A) (A) (A) (A) (A) (A) (A) (A) (A)
                 (A) (A) (A) (A) (A) (A) (A) (A) (A) (A) (A) (A)
                 (A)
 The electronic state is 2-A.
 Alpha  occ. eigenvalues --  -19.12699 -10.25611 -10.21993  -1.05233  -0.76898
 Alpha  occ. eigenvalues --   -0.58805  -0.50360  -0.45790  -0.42080  -0.41964
 Alpha  occ. eigenvalues --   -0.27478  -0.27417
 Alpha virt. eigenvalues --   -0.00106   0.05143   0.07017   0.11186   0.20544
 Alpha virt. eigenvalues --    0.24792   0.32333   0.34351   0.37069   0.42272
 Alpha virt. eigenvalues --    0.45270   0.56700   0.57061   0.60047   0.62300
 Alpha virt. eigenvalues --    0.64126   0.72089   0.82699   0.82890   0.94540
 Alpha virt. eigenvalues --    0.98860   1.03179   1.23904   1.30333   1.38960
 Alpha virt. eigenvalues --    1.39351   1.44887   1.51850   1.56519   1.59120
 Alpha virt. eigenvalues --    1.73375   1.75861   1.90899   1.92625   2.00798
 Alpha virt. eigenvalues --    2.06422   2.11541   2.22750   2.47236   2.50329
 Alpha virt. eigenvalues --    2.52468   2.53250   2.62120   2.71093   2.79586
 Alpha virt. eigenvalues --    2.88397   2.92767   3.10441   3.28366   3.35008
 Alpha virt. eigenvalues --    3.50278   3.67020   3.81450   4.08356   4.82057
 Alpha virt. eigenvalues --    4.96615   5.55224  23.71996  23.94199  49.90862
  Beta  occ. eigenvalues --  -19.11740 -10.25841 -10.20871  -1.03505  -0.74149
  Beta  occ. eigenvalues --   -0.58063  -0.49678  -0.44891  -0.41310  -0.38153
  Beta  occ. eigenvalues --   -0.26416
  Beta virt. eigenvalues --   -0.14085   0.03164   0.05469   0.07295   0.11367
  Beta virt. eigenvalues --    0.20691   0.25002   0.33188   0.35909   0.39213
  Beta virt. eigenvalues --    0.42760   0.47574   0.56798   0.57617   0.60523
  Beta virt. eigenvalues --    0.63146   0.64619   0.73364   0.83121   0.85650
  Beta virt. eigenvalues --    0.95013   1.01154   1.05242   1.24443   1.31576
  Beta virt. eigenvalues --    1.39617   1.40050   1.44803   1.54322   1.56564
  Beta virt. eigenvalues --    1.60027   1.74013   1.76575   1.92604   1.93499
  Beta virt. eigenvalues --    2.02914   2.07261   2.11743   2.22784   2.47568
  Beta virt. eigenvalues --    2.50624   2.52733   2.55348   2.62893   2.74551
  Beta virt. eigenvalues --    2.80361   2.91533   2.95136   3.11139   3.30730
  Beta virt. eigenvalues --    3.35937   3.50706   3.68570   3.81956   4.09595
  Beta virt. eigenvalues --    4.86252   4.97421   5.55948  23.72490  23.94754
  Beta virt. eigenvalues --   49.91833
          Condensed to atoms (all electrons):
               1          2          3          4          5          6
     1  O    7.837497  -0.092568   0.569375   0.004807   0.009157  -0.050105
     2  C   -0.092568   5.281970   0.390328   0.350781   0.369636  -0.114217
     3  C    0.569375   0.390328   4.569206  -0.017894  -0.025931   0.393724
     4  H    0.004807   0.350781  -0.017894   0.554351  -0.024727   0.004621
     5  H    0.009157   0.369636  -0.025931  -0.024727   0.520039   0.010297
     6  H   -0.050105  -0.114217   0.393724   0.004621   0.010297   0.682374
          Atomic-Atomic Spin Densities.
               1          2          3          4          5          6
     1  O    0.409875  -0.021023  -0.027898  -0.000163   0.000313   0.001026
     2  C   -0.021023   0.858882   0.021231   0.002810  -0.000051   0.000555
     3  C   -0.027898   0.021231  -0.144453  -0.001095  -0.001007   0.004133
     4  H   -0.000163   0.002810  -0.001095  -0.043255   0.003183   0.000147
     5  H    0.000313  -0.000051  -0.001007   0.003183  -0.040275  -0.000305
     6  H    0.001026   0.000555   0.004133   0.000147  -0.000305  -0.004486
 Mulliken charges and spin densities:
               1          2
     1  O   -0.278162   0.362130
     2  C   -0.185928   0.862405
     3  C    0.121193  -0.149090
     4  H    0.128062  -0.038374
     5  H    0.141529  -0.038142
     6  H    0.073307   0.001070
 Sum of Mulliken charges =   0.00000   1.00000
 Mulliken charges and spin densities with hydrogens summed into heavy atoms:
               1          2
     1  O   -0.278162   0.362130
     2  C    0.083662   0.785889
     3  C    0.194499  -0.148019
 Electronic spatial extent (au):  <R**2>=            150.2449
 Charge=              0.0000 electrons
 Dipole moment (field-independent basis, Debye):
    X=              2.6864    Y=              0.8750    Z=              0.0002  Tot=              2.8253
 Quadrupole moment (field-independent basis, Debye-Ang):
   XX=            -18.9784   YY=            -16.7000   ZZ=            -18.2491
   XY=             -0.9212   XZ=              0.0002   YZ=             -0.0002
 Traceless Quadrupole moment (field-independent basis, Debye-Ang):
   XX=             -1.0026   YY=              1.2758   ZZ=             -0.2733
   XY=             -0.9212   XZ=              0.0002   YZ=             -0.0002
 Octapole moment (field-independent basis, Debye-Ang**2):
  XXX=              2.5592  YYY=             -1.0523  ZZZ=              0.0003  XYY=             -0.1359
  XXY=              0.8254  XXZ=              0.0000  XZZ=             -2.5679  YZZ=             -0.3606
  YYZ=              0.0012  XYZ=             -0.0005
 Hexadecapole moment (field-independent basis, Debye-Ang**3):
 XXXX=           -128.6920 YYYY=            -40.3729 ZZZZ=            -17.5739 XXXY=              3.2324
 XXXZ=              0.0001 YYYX=             -1.0949 YYYZ=              0.0000 ZZZX=              0.0001
 ZZZY=             -0.0003 XXYY=            -27.6817 XXZZ=            -25.4811 YYZZ=            -10.5862
 XXYZ=             -0.0009 YYXZ=              0.0004 ZZXY=              0.5907
 N-N= 6.360669087012D+01 E-N=-4.861092850694D+02  KE= 1.527096755448D+02
                          Isotropic Fermi Contact Couplings
        Atom                 a.u.       MegaHertz       Gauss      10(-4) cm-1
     1  O(17)              0.02590     -15.70202      -5.60287      -5.23763
     2  C(13)              0.04752      53.42330      19.06276      17.82010
     3  C(13)             -0.03694     -41.52410     -14.81683     -13.85095
     4  H(1)              -0.01115     -49.82154     -17.77756     -16.61868
     5  H(1)              -0.01099     -49.11653     -17.52600     -16.38351
     6  H(1)               0.00025       1.12300       0.40071       0.37459
 --------------------------------------------------------
       Center         ----  Spin Dipole Couplings  ----
                      3XX-RR        3YY-RR        3ZZ-RR
 --------------------------------------------------------
     1   Atom       -0.735486     -0.738914      1.474399
     2   Atom       -0.454481     -0.456460      0.910941
     3   Atom        0.095933      0.044164     -0.140097
     4   Atom        0.025198     -0.021065     -0.004134
     5   Atom       -0.052727      0.058436     -0.005709
     6   Atom        0.006757      0.003260     -0.010017
 --------------------------------------------------------
                        XY            XZ            YZ
 --------------------------------------------------------
     1   Atom        0.003920      0.000432     -0.000626
     2   Atom        0.002919     -0.000131      0.000371
     3   Atom        0.009405      0.000003      0.000004
     4   Atom        0.056022     -0.000014      0.000007
     5   Atom       -0.012483     -0.000001     -0.000019
     6   Atom       -0.008375     -0.000001      0.000004
 --------------------------------------------------------


 ---------------------------------------------------------------------------------
              Anisotropic Spin Dipole Couplings in Principal Axis System
 ---------------------------------------------------------------------------------

       Atom             a.u.   MegaHertz   Gauss  10(-4) cm-1        Axes

              Baa    -0.7415    53.653    19.145    17.897 -0.5474  0.8368  0.0003
     1 O(17)  Bbb    -0.7329    53.034    18.924    17.690  0.8368  0.5474  0.0000
              Bcc     1.4744  -106.687   -38.068   -35.587  0.0002 -0.0003  1.0000
 
              Baa    -0.4586   -61.533   -21.957   -20.525 -0.5827  0.8127 -0.0003
     2 C(13)  Bbb    -0.4524   -60.706   -21.661   -20.249  0.8127  0.5827 -0.0001
              Bcc     0.9109   122.240    43.618    40.775 -0.0001  0.0003  1.0000
 
              Baa    -0.1401   -18.800    -6.708    -6.271  0.0000  0.0000  1.0000
     3 C(13)  Bbb     0.0425     5.704     2.035     1.903 -0.1734  0.9849  0.0000
              Bcc     0.0976    13.095     4.673     4.368  0.9849  0.1734  0.0000
 
              Baa    -0.0585   -31.235   -11.146   -10.419 -0.5560  0.8312 -0.0002
     4 H(1)   Bbb    -0.0041    -2.206    -0.787    -0.736  0.0000  0.0003  1.0000
              Bcc     0.0627    33.441    11.933    11.155  0.8312  0.5560 -0.0001
 
              Baa    -0.0541   -28.871   -10.302    -9.630  0.9939  0.1102  0.0001
     5 H(1)   Bbb    -0.0057    -3.046    -1.087    -1.016 -0.0001  0.0003  1.0000
              Bcc     0.0598    31.918    11.389    10.647 -0.1102  0.9939 -0.0003
 
              Baa    -0.0100    -5.345    -1.907    -1.783 -0.0001 -0.0004  1.0000
     6 H(1)   Bbb    -0.0035    -1.893    -0.675    -0.631  0.6307  0.7760  0.0004
              Bcc     0.0136     7.237     2.582     2.414  0.7760 -0.6307 -0.0001
 

 ---------------------------------------------------------------------------------

 No NMR shielding tensors so no spin-rotation constants.
 Leave Link  601 at Sat Feb 16 15:01:08 2019, MaxMem=   196608000 cpu:         5.5
 (Enter /cm/shared/c3ddb/gaussian/09.d01/g09/l9999.exe)
 1\1\GINC-NODE089\Scan\UB3LYP\6-311G(2d,d,p)\C2H3O1(2)\DUMINDA\16-Feb-2
 019\0\\#P opt=(modredundant, calcfc, noeigentest) ub3lyp/cbsb7 scf=xqc
 \\name\\0,2\O,2.5017462208,-0.6310331407,-0.7847672833\C,2.8541027629,
 1.2555343681,0.5495514249\C,2.09323034,0.1481701014,0.0790327845\H,2.4
 663375454,1.922615344,1.3105202184\H,3.8401694164,1.4310398059,0.13594
 66665\H,1.0924037166,0.0070225174,0.5299341945\\Version=AS64L-G09RevD.
 01\State=2-A\HF=-153.2168646,-153.2165001,-153.215413,-153.2136439,-15
 3.2112664,-153.2084025,-153.2052239,-153.2019692,-153.1989479,-153.196
 5752,-153.1979785,-153.2005817,-153.2036338,-153.2068814,-153.2100443,
 -153.2128396,-153.2150164,-153.2163943,-153.2168655,-153.2163937,-153.
 2150168,-153.2128396,-153.2100442,-153.2068813,-153.2036338,-153.20058
 17,-153.1979786,-153.1961046,-153.1989479,-153.201969,-153.205224,-153
 .2084024,-153.2112664,-153.2136439,-153.215413,-153.2165001,-153.21686
 51\S2=0.768206,0.768149,0.767961,0.767517,0.766652,0.765193,0.763019,0
 .760195,0.757118,0.754465,0.75452,0.756406,0.759052,0.761881,0.764455,
 0.766278,0.767496,0.768033,0.768197,0.768095,0.767414,0.766267,0.76442
 3,0.761907,0.759048,0.756405,0.754515,0.753596,0.757092,0.760176,0.763
 011,0.765181,0.766655,0.767542,0.767974,0.768153,0.768265\S2-1=0.,0.,0
 .,0.,0.,0.,0.,0.,0.,0.,0.,0.,0.,0.,0.,0.,0.,0.,0.,0.,0.,0.,0.,0.,0.,0.
 ,0.,0.,0.,0.,0.,0.,0.,0.,0.,0.,0.\S2A=0.750086,0.750086,0.750085,0.750
 083,0.750079,0.750072,0.750061,0.750046,0.750029,0.750014,0.750015,0.7
 50027,0.750042,0.750057,0.75007,0.750078,0.750084,0.750086,0.750086,0.
 750086,0.750083,0.750078,0.75007,0.750058,0.750042,0.750027,0.750015,0
 .750008,0.750029,0.750046,0.750061,0.750072,0.750079,0.750083,0.750085
 ,0.750086,0.750087\RMSD=5.721e-09,3.266e-09,3.241e-09,2.578e-09,2.785e
 -09,4.515e-09,2.558e-09,5.374e-09,6.835e-09,5.003e-09,8.905e-09,9.580e
 -09,2.192e-09,7.765e-09,3.891e-09,3.189e-09,9.823e-09,4.265e-09,4.618e
 -09,4.069e-09,4.910e-09,4.680e-09,6.665e-09,6.090e-09,2.850e-09,8.281e
 -09,7.298e-09,4.917e-09,7.704e-09,8.753e-09,1.066e-09,5.796e-09,3.232e
 -09,4.616e-09,4.447e-09,5.833e-09,4.198e-09\PG=C01 [X(C2H3O1)]\\@


 ASKING FOR EFFICIENCY AND ADAPTABILITY IN THE SAME PROGRAM IS LIKE
 ASKING FOR A BEAUTIFUL AND MODEST WIFE ...
 WE'LL PROBABLY HAVE TO SETTLE FOR ONE OR THE OTHER.

             -- THE PSYCHOLOGY OF COMPUTER PROGRAMMING
                GERALD M. WEINBERG
 Job cpu time:       0 days  5 hours  0 minutes 25.0 seconds.
 File lengths (MBytes):  RWF=     12 Int=      0 D2E=      0 Chk=      3 Scr=      1
 Normal termination of Gaussian 09 at Sat Feb 16 15:01:08 2019.
