 Entering Gaussian System, Link 0=g09
 Initial command:
 /cm/shared/c3ddb/gaussian/09.d01/g09/l1.exe "/scratch/users/duminda/g09/a1687-7322577/Gau-10607.inp" -scrdir="/scratch/users/duminda/g09/a1687-7322577/"
 Entering Link 1 = /cm/shared/c3ddb/gaussian/09.d01/g09/l1.exe PID=     10608.
  
 Copyright (c) 1988,1990,1992,1993,1995,1998,2003,2009,2013,
            Gaussian, Inc.  All Rights Reserved.
  
 This is part of the Gaussian(R) 09 program.  It is based on
 the Gaussian(R) 03 system (copyright 2003, Gaussian, Inc.),
 the Gaussian(R) 98 system (copyright 1998, Gaussian, Inc.),
 the Gaussian(R) 94 system (copyright 1995, Gaussian, Inc.),
 the Gaussian 92(TM) system (copyright 1992, Gaussian, Inc.),
 the Gaussian 90(TM) system (copyright 1990, Gaussian, Inc.),
 the Gaussian 88(TM) system (copyright 1988, Gaussian, Inc.),
 the Gaussian 86(TM) system (copyright 1986, Carnegie Mellon
 University), and the Gaussian 82(TM) system (copyright 1983,
 Carnegie Mellon University). Gaussian is a federally registered
 trademark of Gaussian, Inc.
  
 This software contains proprietary and confidential information,
 including trade secrets, belonging to Gaussian, Inc.
  
 This software is provided under written license and may be
 used, copied, transmitted, or stored only in accord with that
 written license.
  
 The following legend is applicable only to US Government
 contracts under FAR:
  
                    RESTRICTED RIGHTS LEGEND
  
 Use, reproduction and disclosure by the US Government is
 subject to restrictions as set forth in subparagraphs (a)
 and (c) of the Commercial Computer Software - Restricted
 Rights clause in FAR 52.227-19.
  
 Gaussian, Inc.
 340 Quinnipiac St., Bldg. 40, Wallingford CT 06492
  
  
 ---------------------------------------------------------------
 Warning -- This program may not be used in any manner that
 competes with the business of Gaussian, Inc. or will provide
 assistance to any competitor of Gaussian, Inc.  The licensee
 of this program is prohibited from giving any competitor of
 Gaussian, Inc. access to this program.  By using this program,
 the user acknowledges that Gaussian, Inc. is engaged in the
 business of creating and licensing software in the field of
 computational chemistry and represents and warrants to the
 licensee that it is not a competitor of Gaussian, Inc. and that
 it will not use this program in any manner prohibited above.
 ---------------------------------------------------------------
  

 Cite this work as:
 Gaussian 09, Revision D.01,
 M. J. Frisch, G. W. Trucks, H. B. Schlegel, G. E. Scuseria, 
 M. A. Robb, J. R. Cheeseman, G. Scalmani, V. Barone, B. Mennucci, 
 G. A. Petersson, H. Nakatsuji, M. Caricato, X. Li, H. P. Hratchian, 
 A. F. Izmaylov, J. Bloino, G. Zheng, J. L. Sonnenberg, M. Hada, 
 M. Ehara, K. Toyota, R. Fukuda, J. Hasegawa, M. Ishida, T. Nakajima, 
 Y. Honda, O. Kitao, H. Nakai, T. Vreven, J. A. Montgomery, Jr., 
 J. E. Peralta, F. Ogliaro, M. Bearpark, J. J. Heyd, E. Brothers, 
 K. N. Kudin, V. N. Staroverov, T. Keith, R. Kobayashi, J. Normand, 
 K. Raghavachari, A. Rendell, J. C. Burant, S. S. Iyengar, J. Tomasi, 
 M. Cossi, N. Rega, J. M. Millam, M. Klene, J. E. Knox, J. B. Cross, 
 V. Bakken, C. Adamo, J. Jaramillo, R. Gomperts, R. E. Stratmann, 
 O. Yazyev, A. J. Austin, R. Cammi, C. Pomelli, J. W. Ochterski, 
 R. L. Martin, K. Morokuma, V. G. Zakrzewski, G. A. Voth, 
 P. Salvador, J. J. Dannenberg, S. Dapprich, A. D. Daniels, 
 O. Farkas, J. B. Foresman, J. V. Ortiz, J. Cioslowski, 
 and D. J. Fox, Gaussian, Inc., Wallingford CT, 2013.
 
 ******************************************
 Gaussian 09:  AS64L-G09RevD.01 24-Apr-2013
                16-Feb-2019 
 ******************************************
 %chk=check.chk
 %mem=1500mb
 %nproc=8
 Will use up to    8 processors via shared memory.
 --------------------------------------------
 #P opt=(noeigentest, calcfc) cbs-qb3 scf=xqc
 --------------------------------------------
 1/10=4,11=1,14=-1,18=20,19=15,26=3,38=1/1,3;
 2/9=110,12=2,17=6,18=5,40=1/2;
 3/5=4,6=6,7=700,11=2,16=1,25=1,30=1,71=2,74=-5,140=1/1,2,3;
 4//1;
 5/5=2,8=3,13=1,38=5/2,8;
 8/6=4,10=90,11=11/1;
 11/6=1,8=1,9=11,15=111,16=1/1,2,10;
 10/6=1,13=1/2;
 6/7=2,8=2,9=2,10=2,28=1/1;
 7/10=1,18=20,25=1/1,2,3,16;
 1/10=4,11=1,14=-1,18=20,19=15,26=3/3(2);
 2/9=110/2;
 99//99;
 2/9=110/2;
 3/5=4,6=6,7=700,11=2,16=1,25=1,30=1,71=1,74=-5/1,2,3;
 4/5=5,16=3,69=1/1;
 5/5=2,8=3,13=1,38=5/2,8;
 7//1,2,3,16;
 1/11=1,14=-1,18=20,19=15,26=3/3(-5);
 2/9=110/2;
 6/7=2,8=2,9=2,10=2,19=2,28=1/1;
 99/9=1/99;
 Leave Link    1 at Sat Feb 16 13:49:17 2019, MaxMem=   196608000 cpu:         0.7
 (Enter /cm/shared/c3ddb/gaussian/09.d01/g09/l101.exe)
 ----
 name
 ----
 Symbolic Z-matrix:
 Charge =  0 Multiplicity = 2
 O                     0.95221  -0.16849   0.26295 
 C                     2.818     1.26906   0.57892 
 C                     2.17505   0.12663   0.02436 
 H                     3.86297   1.49295   0.35554 
 H                     2.25929   1.93459   1.23921 
 H                     2.78048  -0.5214   -0.64076 
 
 NAtoms=      6 NQM=        6 NQMF=       0 NMMI=      0 NMMIF=      0
                NMic=       0 NMicF=      0.
                    Isotopes and Nuclear Properties:
 (Nuclear quadrupole moments (NQMom) in fm**2, nuclear magnetic moments (NMagM)
  in nuclear magnetons)

  Atom         1           2           3           4           5           6
 IAtWgt=          16          12          12           1           1           1
 AtmWgt=  15.9949146  12.0000000  12.0000000   1.0078250   1.0078250   1.0078250
 NucSpn=           0           0           0           1           1           1
 AtZEff=   0.0000000   0.0000000   0.0000000   0.0000000   0.0000000   0.0000000
 NQMom=    0.0000000   0.0000000   0.0000000   0.0000000   0.0000000   0.0000000
 NMagM=    0.0000000   0.0000000   0.0000000   2.7928460   2.7928460   2.7928460
 AtZNuc=   8.0000000   6.0000000   6.0000000   1.0000000   1.0000000   1.0000000
 Leave Link  101 at Sat Feb 16 13:49:18 2019, MaxMem=   196608000 cpu:         0.9
 (Enter /cm/shared/c3ddb/gaussian/09.d01/g09/l103.exe)

 GradGradGradGradGradGradGradGradGradGradGradGradGradGradGradGradGradGrad
 Berny optimization.
 Initialization pass.
                           ----------------------------
                           !    Initial Parameters    !
                           ! (Angstroms and Degrees)  !
 --------------------------                            --------------------------
 ! Name  Definition              Value          Derivative Info.                !
 --------------------------------------------------------------------------------
 ! R1    R(1,3)                  1.2804         calculate D2E/DX2 analytically  !
 ! R2    R(2,3)                  1.4234         calculate D2E/DX2 analytically  !
 ! R3    R(2,4)                  1.0918         calculate D2E/DX2 analytically  !
 ! R4    R(2,5)                  1.0914         calculate D2E/DX2 analytically  !
 ! R5    R(3,6)                  1.1085         calculate D2E/DX2 analytically  !
 ! A1    A(3,2,4)              121.1449         calculate D2E/DX2 analytically  !
 ! A2    A(3,2,5)              119.5984         calculate D2E/DX2 analytically  !
 ! A3    A(4,2,5)              119.2567         calculate D2E/DX2 analytically  !
 ! A4    A(1,3,2)              122.9425         calculate D2E/DX2 analytically  !
 ! A5    A(1,3,6)              119.9116         calculate D2E/DX2 analytically  !
 ! A6    A(2,3,6)              117.1459         calculate D2E/DX2 analytically  !
 ! D1    D(4,2,3,1)            180.0            calculate D2E/DX2 analytically  !
 ! D2    D(4,2,3,6)              0.0            calculate D2E/DX2 analytically  !
 ! D3    D(5,2,3,1)             -0.0001         calculate D2E/DX2 analytically  !
 ! D4    D(5,2,3,6)            179.9999         calculate D2E/DX2 analytically  !
 --------------------------------------------------------------------------------
 Trust Radius=3.00D-01 FncErr=1.00D-07 GrdErr=1.00D-06
 Number of steps in this run=     25 maximum allowed number of steps=    100.
 GradGradGradGradGradGradGradGradGradGradGradGradGradGradGradGradGradGrad

 Leave Link  103 at Sat Feb 16 13:49:18 2019, MaxMem=   196608000 cpu:         0.0
 (Enter /cm/shared/c3ddb/gaussian/09.d01/g09/l202.exe)
                          Input orientation:                          
 ---------------------------------------------------------------------
 Center     Atomic      Atomic             Coordinates (Angstroms)
 Number     Number       Type             X           Y           Z
 ---------------------------------------------------------------------
      1          8           0        0.952206   -0.168489    0.262954
      2          6           0        2.817997    1.269062    0.578919
      3          6           0        2.175053    0.126633    0.024361
      4          1           0        3.862972    1.492951    0.355535
      5          1           0        2.259287    1.934594    1.239208
      6          1           0        2.780476   -0.521403   -0.640758
 ---------------------------------------------------------------------
                    Distance matrix (angstroms):
                    1          2          3          4          5
     1  O    0.000000
     2  C    2.376460   0.000000
     3  C    1.280382   1.423396   0.000000
     4  H    3.352837   1.091787   2.196718   0.000000
     5  H    2.661671   1.091362   2.179833   1.883542   0.000000
     6  H    2.069738   2.166745   1.108545   2.494398   3.136532
                    6
     6  H    0.000000
 Stoichiometry    C2H3O(2)
 Framework group  C1[X(C2H3O)]
 Deg. of freedom    12
 Full point group                 C1      NOp   1
 Largest Abelian subgroup         C1      NOp   1
 Largest concise Abelian subgroup C1      NOp   1
                         Standard orientation:                         
 ---------------------------------------------------------------------
 Center     Atomic      Atomic             Coordinates (Angstroms)
 Number     Number       Type             X           Y           Z
 ---------------------------------------------------------------------
      1          8           0        1.197423   -0.263143    0.000000
      2          6           0       -1.177631   -0.181422    0.000000
      3          6           0        0.113335    0.418129    0.000000
      4          1           0       -2.083360    0.428213    0.000000
      5          1           0       -1.266815   -1.269134   -0.000001
      6          1           0        0.156563    1.525830    0.000000
 ---------------------------------------------------------------------
 Rotational constants (GHZ):     65.4375938     11.0987032      9.4892549
 Leave Link  202 at Sat Feb 16 13:49:18 2019, MaxMem=   196608000 cpu:         0.5
 (Enter /cm/shared/c3ddb/gaussian/09.d01/g09/l301.exe)
 Standard basis: 6-311G(2d,d,p) (5D, 7F)
 Ernie: Thresh=  0.10000D-02 Tol=  0.10000D-05 Strict=F.
 There are    75 symmetry adapted cartesian basis functions of A   symmetry.
 There are    72 symmetry adapted basis functions of A   symmetry.
    72 basis functions,   120 primitive gaussians,    75 cartesian basis functions
    12 alpha electrons       11 beta electrons
       nuclear repulsion energy        62.5195645007 Hartrees.
 IExCor=  402 DFT=T Ex+Corr=B3LYP ExCW=0 ScaHFX=  0.200000
 ScaDFX=  0.800000  0.720000  1.000000  0.810000 ScalE2=  1.000000  1.000000
 IRadAn=      0 IRanWt=     -1 IRanGd=            0 ICorTp=0 IEmpDi=  4
 NAtoms=    6 NActive=    6 NUniq=    6 SFac= 1.00D+00 NAtFMM=   60 NAOKFM=F Big=F
 Integral buffers will be    131072 words long.
 Raffenetti 2 integral format.
 Two-electron integral symmetry is turned on.
 Leave Link  301 at Sat Feb 16 13:49:18 2019, MaxMem=   196608000 cpu:         0.6
 (Enter /cm/shared/c3ddb/gaussian/09.d01/g09/l302.exe)
 NPDir=0 NMtPBC=     1 NCelOv=     1 NCel=       1 NClECP=     1 NCelD=      1
         NCelK=      1 NCelE2=     1 NClLst=     1 CellRange=     0.0.
 One-electron integrals computed using PRISM.
 NBasis=    72 RedAO= T EigKep=  4.36D-03  NBF=    72
 NBsUse=    72 1.00D-06 EigRej= -1.00D+00 NBFU=    72
 Precomputing XC quadrature grid using
 IXCGrd= 4 IRadAn=           0 IRanWt=          -1 IRanGd=           0 AccXCQ= 0.00D+00.
 Generated NRdTot=       0 NPtTot=           0 NUsed=           0 NTot=          32
 NSgBfM=    75    75    75    75    75 MxSgAt=     6 MxSgA2=     6.
 Leave Link  302 at Sat Feb 16 13:49:19 2019, MaxMem=   196608000 cpu:         4.4
 (Enter /cm/shared/c3ddb/gaussian/09.d01/g09/l303.exe)
 DipDrv:  MaxL=1.
 Leave Link  303 at Sat Feb 16 13:49:19 2019, MaxMem=   196608000 cpu:         1.7
 (Enter /cm/shared/c3ddb/gaussian/09.d01/g09/l401.exe)
 ExpMin= 1.03D-01 ExpMax= 8.59D+03 ExpMxC= 1.30D+03 IAcc=1 IRadAn=         1 AccDes= 0.00D+00
 Harris functional with IExCor=  402 and IRadAn=       1 diagonalized for initial guess.
 HarFok:  IExCor=  402 AccDes= 0.00D+00 IRadAn=         1 IDoV= 1 UseB2=F ITyADJ=14
 ICtDFT=  3500011 ScaDFX=  1.000000  1.000000  1.000000  1.000000
 FoFCou: FMM=F IPFlag=           0 FMFlag=      100000 FMFlg1=           0
         NFxFlg=           0 DoJE=T BraDBF=F KetDBF=T FulRan=T
         wScrn=  0.000000 ICntrl=     500 IOpCl=  0 I1Cent=   200000004 NGrid=           0
         NMat0=    1 NMatS0=      1 NMatT0=    0 NMatD0=    1 NMtDS0=    0 NMtDT0=    0
 Petite list used in FoFCou.
 Harris En= -153.213458029616    
 JPrj=0 DoOrth=F DoCkMO=F.
 Initial guess <Sx>= 0.0000 <Sy>= 0.0000 <Sz>= 0.5000 <S**2>= 0.7500 S= 0.5000
 Leave Link  401 at Sat Feb 16 13:49:21 2019, MaxMem=   196608000 cpu:         8.4
 (Enter /cm/shared/c3ddb/gaussian/09.d01/g09/l502.exe)
 UHF open shell SCF:
 Using DIIS extrapolation, IDIIS=  1040.
 Integral symmetry usage will be decided dynamically.
 Keep R1 and R2 ints in memory in canonical form, NReq=7827000.
 IVT=       23978 IEndB=       23978 NGot=   196608000 MDV=   189675011
 LenX=   189675011 LenY=   189668945
 Requested convergence on RMS density matrix=1.00D-08 within  64 cycles.
 Requested convergence on MAX density matrix=1.00D-06.
 Requested convergence on             energy=1.00D-06.
 No special actions if energy rises.
 FoFCou: FMM=F IPFlag=           0 FMFlag=           0 FMFlg1=           0
         NFxFlg=           0 DoJE=F BraDBF=F KetDBF=F FulRan=T
         wScrn=  0.000000 ICntrl=     600 IOpCl=  0 I1Cent=           0 NGrid=           0
         NMat0=    1 NMatS0=   2628 NMatT0=    0 NMatD0=    1 NMtDS0=    0 NMtDT0=    0
 Symmetry not used in FoFCou.
 Integral accuracy reduced to 1.0D-05 until final iterations.

 Cycle   1  Pass 0  IDiag  1:
 E= -153.134159150986    
 DIIS: error= 3.73D-02 at cycle   1 NSaved=   1.
 NSaved= 1 IEnMin= 1 EnMin= -153.134159150986     IErMin= 1 ErrMin= 3.73D-02
 ErrMax= 3.73D-02  0.00D+00 EMaxC= 1.00D-01 BMatC= 3.95D-01 BMatP= 3.95D-01
 IDIUse=3 WtCom= 6.27D-01 WtEn= 3.73D-01
 Coeff-Com:  0.100D+01
 Coeff-En:   0.100D+01
 Coeff:      0.100D+01
 Gap=     0.240 Goal=   None    Shift=    0.000
 Gap=     0.038 Goal=   None    Shift=    0.000
 GapD=    0.038 DampG=0.250 DampE=0.500 DampFc=0.2500 IDamp=-1.
 Damping current iteration by 2.50D-01
 RMSDP=1.17D-02 MaxDP=3.02D-01              OVMax= 3.67D-01

 Cycle   2  Pass 0  IDiag  1:
 E= -153.159287272886     Delta-E=       -0.025128121900 Rises=F Damp=T
 DIIS: error= 1.64D-02 at cycle   2 NSaved=   2.
 NSaved= 2 IEnMin= 2 EnMin= -153.159287272886     IErMin= 2 ErrMin= 1.64D-02
 ErrMax= 1.64D-02  0.00D+00 EMaxC= 1.00D-01 BMatC= 7.06D-02 BMatP= 3.95D-01
 IDIUse=3 WtCom= 8.36D-01 WtEn= 1.64D-01
 Coeff-Com: -0.364D+00 0.136D+01
 Coeff-En:   0.000D+00 0.100D+01
 Coeff:     -0.304D+00 0.130D+01
 Gap=     0.321 Goal=   None    Shift=    0.000
 Gap=     0.133 Goal=   None    Shift=    0.000
 RMSDP=1.99D-03 MaxDP=5.34D-02 DE=-2.51D-02 OVMax= 2.99D-01

 Cycle   3  Pass 0  IDiag  1:
 E= -153.200368584257     Delta-E=       -0.041081311371 Rises=F Damp=F
 DIIS: error= 1.87D-02 at cycle   3 NSaved=   3.
 NSaved= 3 IEnMin= 3 EnMin= -153.200368584257     IErMin= 2 ErrMin= 1.64D-02
 ErrMax= 1.87D-02  0.00D+00 EMaxC= 1.00D-01 BMatC= 5.32D-02 BMatP= 7.06D-02
 IDIUse=3 WtCom= 8.13D-01 WtEn= 1.87D-01
 Coeff-Com: -0.308D+00 0.793D+00 0.516D+00
 Coeff-En:   0.000D+00 0.000D+00 0.100D+01
 Coeff:     -0.251D+00 0.645D+00 0.606D+00
 Gap=     0.262 Goal=   None    Shift=    0.000
 Gap=     0.104 Goal=   None    Shift=    0.000
 RMSDP=1.50D-03 MaxDP=2.92D-02 DE=-4.11D-02 OVMax= 1.06D-01

 Cycle   4  Pass 0  IDiag  1:
 E= -153.210393077603     Delta-E=       -0.010024493346 Rises=F Damp=F
 DIIS: error= 1.07D-02 at cycle   4 NSaved=   4.
 NSaved= 4 IEnMin= 4 EnMin= -153.210393077603     IErMin= 4 ErrMin= 1.07D-02
 ErrMax= 1.07D-02  0.00D+00 EMaxC= 1.00D-01 BMatC= 1.67D-02 BMatP= 5.32D-02
 IDIUse=3 WtCom= 8.93D-01 WtEn= 1.07D-01
 Coeff-Com:  0.287D-01-0.190D-01 0.335D+00 0.655D+00
 Coeff-En:   0.000D+00 0.000D+00 0.244D+00 0.756D+00
 Coeff:      0.256D-01-0.170D-01 0.325D+00 0.666D+00
 Gap=     0.262 Goal=   None    Shift=    0.000
 Gap=     0.119 Goal=   None    Shift=    0.000
 RMSDP=6.24D-04 MaxDP=1.11D-02 DE=-1.00D-02 OVMax= 2.57D-02

 Cycle   5  Pass 0  IDiag  1:
 E= -153.214210397952     Delta-E=       -0.003817320349 Rises=F Damp=F
 DIIS: error= 1.95D-03 at cycle   5 NSaved=   5.
 NSaved= 5 IEnMin= 5 EnMin= -153.214210397952     IErMin= 5 ErrMin= 1.95D-03
 ErrMax= 1.95D-03  0.00D+00 EMaxC= 1.00D-01 BMatC= 1.76D-04 BMatP= 1.67D-02
 IDIUse=3 WtCom= 9.80D-01 WtEn= 1.95D-02
 Coeff-Com:  0.232D-01-0.503D-01 0.325D-01 0.119D+00 0.876D+00
 Coeff-En:   0.000D+00 0.000D+00 0.000D+00 0.000D+00 0.100D+01
 Coeff:      0.228D-01-0.493D-01 0.318D-01 0.117D+00 0.878D+00
 Gap=     0.264 Goal=   None    Shift=    0.000
 Gap=     0.119 Goal=   None    Shift=    0.000
 RMSDP=1.28D-04 MaxDP=2.60D-03 DE=-3.82D-03 OVMax= 1.01D-02

 Cycle   6  Pass 0  IDiag  1:
 E= -153.214330482438     Delta-E=       -0.000120084486 Rises=F Damp=F
 DIIS: error= 1.03D-03 at cycle   6 NSaved=   6.
 NSaved= 6 IEnMin= 6 EnMin= -153.214330482438     IErMin= 6 ErrMin= 1.03D-03
 ErrMax= 1.03D-03  0.00D+00 EMaxC= 1.00D-01 BMatC= 9.95D-05 BMatP= 1.76D-04
 IDIUse=3 WtCom= 9.90D-01 WtEn= 1.03D-02
 Coeff-Com:  0.331D-02-0.160D-01-0.658D-01-0.130D+00 0.382D+00 0.826D+00
 Coeff-En:   0.000D+00 0.000D+00 0.000D+00 0.000D+00 0.000D+00 0.100D+01
 Coeff:      0.327D-02-0.158D-01-0.651D-01-0.128D+00 0.378D+00 0.828D+00
 Gap=     0.266 Goal=   None    Shift=    0.000
 Gap=     0.122 Goal=   None    Shift=    0.000
 RMSDP=1.13D-04 MaxDP=2.06D-03 DE=-1.20D-04 OVMax= 7.28D-03

 Cycle   7  Pass 0  IDiag  1:
 E= -153.214388381958     Delta-E=       -0.000057899520 Rises=F Damp=F
 DIIS: error= 4.28D-04 at cycle   7 NSaved=   7.
 NSaved= 7 IEnMin= 7 EnMin= -153.214388381958     IErMin= 7 ErrMin= 4.28D-04
 ErrMax= 4.28D-04  0.00D+00 EMaxC= 1.00D-01 BMatC= 1.59D-05 BMatP= 9.95D-05
 IDIUse=3 WtCom= 9.96D-01 WtEn= 4.28D-03
 Coeff-Com: -0.566D-02 0.990D-02-0.274D-01-0.737D-01-0.150D+00 0.316D+00
 Coeff-Com:  0.931D+00
 Coeff-En:   0.000D+00 0.000D+00 0.000D+00 0.000D+00 0.000D+00 0.000D+00
 Coeff-En:   0.100D+01
 Coeff:     -0.564D-02 0.986D-02-0.273D-01-0.734D-01-0.149D+00 0.314D+00
 Coeff:      0.931D+00
 Gap=     0.266 Goal=   None    Shift=    0.000
 Gap=     0.122 Goal=   None    Shift=    0.000
 RMSDP=4.99D-05 MaxDP=1.01D-03 DE=-5.79D-05 OVMax= 4.73D-03

 Cycle   8  Pass 0  IDiag  1:
 E= -153.214400874814     Delta-E=       -0.000012492856 Rises=F Damp=F
 DIIS: error= 9.99D-05 at cycle   8 NSaved=   8.
 NSaved= 8 IEnMin= 8 EnMin= -153.214400874814     IErMin= 8 ErrMin= 9.99D-05
 ErrMax= 9.99D-05  0.00D+00 EMaxC= 1.00D-01 BMatC= 7.02D-07 BMatP= 1.59D-05
 IDIUse=1 WtCom= 1.00D+00 WtEn= 0.00D+00
 Coeff-Com: -0.192D-03 0.136D-02 0.411D-02 0.494D-02-0.477D-01-0.273D-01
 Coeff-Com:  0.117D-01 0.105D+01
 Coeff:     -0.192D-03 0.136D-02 0.411D-02 0.494D-02-0.477D-01-0.273D-01
 Coeff:      0.117D-01 0.105D+01
 Gap=     0.267 Goal=   None    Shift=    0.000
 Gap=     0.122 Goal=   None    Shift=    0.000
 RMSDP=1.50D-05 MaxDP=2.72D-04 DE=-1.25D-05 OVMax= 1.32D-03

 Cycle   9  Pass 0  IDiag  1:
 E= -153.214401766007     Delta-E=       -0.000000891193 Rises=F Damp=F
 DIIS: error= 4.48D-05 at cycle   9 NSaved=   9.
 NSaved= 9 IEnMin= 9 EnMin= -153.214401766007     IErMin= 9 ErrMin= 4.48D-05
 ErrMax= 4.48D-05  0.00D+00 EMaxC= 1.00D-01 BMatC= 1.23D-07 BMatP= 7.02D-07
 IDIUse=1 WtCom= 1.00D+00 WtEn= 0.00D+00
 Coeff-Com:  0.108D-02-0.169D-02 0.377D-02 0.890D-02 0.165D-01-0.348D-01
 Coeff-Com: -0.127D+00-0.217D-01 0.116D+01
 Coeff:      0.108D-02-0.169D-02 0.377D-02 0.890D-02 0.165D-01-0.348D-01
 Coeff:     -0.127D+00-0.217D-01 0.116D+01
 Gap=     0.267 Goal=   None    Shift=    0.000
 Gap=     0.122 Goal=   None    Shift=    0.000
 RMSDP=6.45D-06 MaxDP=1.13D-04 DE=-8.91D-07 OVMax= 5.20D-04

 Initial convergence to 1.0D-05 achieved.  Increase integral accuracy.
 Cycle  10  Pass 1  IDiag  1:
 E= -153.214407261654     Delta-E=       -0.000005495647 Rises=F Damp=F
 DIIS: error= 6.72D-06 at cycle   1 NSaved=   1.
 NSaved= 1 IEnMin= 1 EnMin= -153.214407261654     IErMin= 1 ErrMin= 6.72D-06
 ErrMax= 6.72D-06  0.00D+00 EMaxC= 1.00D-01 BMatC= 1.37D-08 BMatP= 1.37D-08
 IDIUse=1 WtCom= 1.00D+00 WtEn= 0.00D+00
 Coeff-Com:  0.100D+01
 Coeff:      0.100D+01
 Gap=     0.267 Goal=   None    Shift=    0.000
 Gap=     0.122 Goal=   None    Shift=    0.000
 RMSDP=6.45D-06 MaxDP=1.13D-04 DE=-5.50D-06 OVMax= 7.06D-05

 Cycle  11  Pass 1  IDiag  1:
 E= -153.214407268347     Delta-E=       -0.000000006693 Rises=F Damp=F
 DIIS: error= 8.19D-06 at cycle   2 NSaved=   2.
 NSaved= 2 IEnMin= 2 EnMin= -153.214407268347     IErMin= 1 ErrMin= 6.72D-06
 ErrMax= 8.19D-06  0.00D+00 EMaxC= 1.00D-01 BMatC= 4.79D-09 BMatP= 1.37D-08
 IDIUse=1 WtCom= 1.00D+00 WtEn= 0.00D+00
 Coeff-Com:  0.260D+00 0.740D+00
 Coeff:      0.260D+00 0.740D+00
 Gap=     0.267 Goal=   None    Shift=    0.000
 Gap=     0.122 Goal=   None    Shift=    0.000
 RMSDP=7.33D-07 MaxDP=1.24D-05 DE=-6.69D-09 OVMax= 6.51D-05

 Cycle  12  Pass 1  IDiag  1:
 E= -153.214407268095     Delta-E=        0.000000000252 Rises=F Damp=F
 DIIS: error= 8.84D-06 at cycle   3 NSaved=   3.
 NSaved= 3 IEnMin= 2 EnMin= -153.214407268347     IErMin= 1 ErrMin= 6.72D-06
 ErrMax= 8.84D-06  0.00D+00 EMaxC= 1.00D-01 BMatC= 1.10D-08 BMatP= 4.79D-09
 IDIUse=1 WtCom= 1.00D+00 WtEn= 0.00D+00
 Coeff-Com: -0.720D-01 0.646D+00 0.426D+00
 Coeff:     -0.720D-01 0.646D+00 0.426D+00
 Gap=     0.267 Goal=   None    Shift=    0.000
 Gap=     0.122 Goal=   None    Shift=    0.000
 RMSDP=5.00D-07 MaxDP=9.38D-06 DE= 2.52D-10 OVMax= 2.59D-05

 Cycle  13  Pass 1  IDiag  1:
 E= -153.214407270384     Delta-E=       -0.000000002289 Rises=F Damp=F
 DIIS: error= 1.33D-06 at cycle   4 NSaved=   4.
 NSaved= 4 IEnMin= 4 EnMin= -153.214407270384     IErMin= 4 ErrMin= 1.33D-06
 ErrMax= 1.33D-06  0.00D+00 EMaxC= 1.00D-01 BMatC= 1.99D-10 BMatP= 4.79D-09
 IDIUse=1 WtCom= 1.00D+00 WtEn= 0.00D+00
 Coeff-Com: -0.577D-01 0.628D-01-0.343D-02 0.998D+00
 Coeff:     -0.577D-01 0.628D-01-0.343D-02 0.998D+00
 Gap=     0.267 Goal=   None    Shift=    0.000
 Gap=     0.122 Goal=   None    Shift=    0.000
 RMSDP=1.78D-07 MaxDP=2.51D-06 DE=-2.29D-09 OVMax= 1.32D-05

 Cycle  14  Pass 1  IDiag  1:
 E= -153.214407270542     Delta-E=       -0.000000000158 Rises=F Damp=F
 DIIS: error= 9.28D-07 at cycle   5 NSaved=   5.
 NSaved= 5 IEnMin= 5 EnMin= -153.214407270542     IErMin= 5 ErrMin= 9.28D-07
 ErrMax= 9.28D-07  0.00D+00 EMaxC= 1.00D-01 BMatC= 4.79D-11 BMatP= 1.99D-10
 IDIUse=1 WtCom= 1.00D+00 WtEn= 0.00D+00
 Coeff-Com: -0.356D-02-0.982D-01-0.945D-01 0.300D+00 0.896D+00
 Coeff:     -0.356D-02-0.982D-01-0.945D-01 0.300D+00 0.896D+00
 Gap=     0.267 Goal=   None    Shift=    0.000
 Gap=     0.122 Goal=   None    Shift=    0.000
 RMSDP=1.05D-07 MaxDP=1.92D-06 DE=-1.58D-10 OVMax= 8.41D-06

 Cycle  15  Pass 1  IDiag  1:
 E= -153.214407270577     Delta-E=       -0.000000000035 Rises=F Damp=F
 DIIS: error= 4.31D-07 at cycle   6 NSaved=   6.
 NSaved= 6 IEnMin= 6 EnMin= -153.214407270577     IErMin= 6 ErrMin= 4.31D-07
 ErrMax= 4.31D-07  0.00D+00 EMaxC= 1.00D-01 BMatC= 1.84D-11 BMatP= 4.79D-11
 IDIUse=1 WtCom= 1.00D+00 WtEn= 0.00D+00
 Coeff-Com:  0.679D-02-0.641D-01-0.486D-01-0.221D-01 0.493D+00 0.635D+00
 Coeff:      0.679D-02-0.641D-01-0.486D-01-0.221D-01 0.493D+00 0.635D+00
 Gap=     0.267 Goal=   None    Shift=    0.000
 Gap=     0.122 Goal=   None    Shift=    0.000
 RMSDP=3.36D-08 MaxDP=6.03D-07 DE=-3.52D-11 OVMax= 3.41D-06

 Cycle  16  Pass 1  IDiag  1:
 E= -153.214407270585     Delta-E=       -0.000000000008 Rises=F Damp=F
 DIIS: error= 1.19D-07 at cycle   7 NSaved=   7.
 NSaved= 7 IEnMin= 7 EnMin= -153.214407270585     IErMin= 7 ErrMin= 1.19D-07
 ErrMax= 1.19D-07  0.00D+00 EMaxC= 1.00D-01 BMatC= 1.18D-12 BMatP= 1.84D-11
 IDIUse=1 WtCom= 1.00D+00 WtEn= 0.00D+00
 Coeff-Com:  0.333D-03 0.164D-01 0.911D-02-0.377D-01-0.118D+00 0.922D-03
 Coeff-Com:  0.113D+01
 Coeff:      0.333D-03 0.164D-01 0.911D-02-0.377D-01-0.118D+00 0.922D-03
 Coeff:      0.113D+01
 Gap=     0.267 Goal=   None    Shift=    0.000
 Gap=     0.122 Goal=   None    Shift=    0.000
 RMSDP=1.48D-08 MaxDP=2.86D-07 DE=-8.04D-12 OVMax= 1.30D-06

 Cycle  17  Pass 1  IDiag  1:
 E= -153.214407270586     Delta-E=       -0.000000000001 Rises=F Damp=F
 DIIS: error= 5.93D-08 at cycle   8 NSaved=   8.
 NSaved= 8 IEnMin= 8 EnMin= -153.214407270586     IErMin= 8 ErrMin= 5.93D-08
 ErrMax= 5.93D-08  0.00D+00 EMaxC= 1.00D-01 BMatC= 3.87D-13 BMatP= 1.18D-12
 IDIUse=1 WtCom= 1.00D+00 WtEn= 0.00D+00
 Coeff-Com: -0.132D-02 0.207D-01 0.112D-01-0.554D-02-0.151D+00-0.138D+00
 Coeff-Com:  0.338D+00 0.926D+00
 Coeff:     -0.132D-02 0.207D-01 0.112D-01-0.554D-02-0.151D+00-0.138D+00
 Coeff:      0.338D+00 0.926D+00
 Gap=     0.267 Goal=   None    Shift=    0.000
 Gap=     0.122 Goal=   None    Shift=    0.000
 RMSDP=8.54D-09 MaxDP=1.54D-07 DE=-1.19D-12 OVMax= 5.95D-07

 SCF Done:  E(UB3LYP) =  -153.214407271     A.U. after   17 cycles
            NFock= 17  Conv=0.85D-08     -V/T= 2.0045
 <Sx>= 0.0000 <Sy>= 0.0000 <Sz>= 0.5000 <S**2>= 0.7750 S= 0.5124
 <L.S>= 0.000000000000E+00
 KE= 1.525347349383D+02 PE=-4.838315561455D+02 EE= 1.155628494358D+02
 Annihilation of the first spin contaminant:
 S**2 before annihilation     0.7750,   after     0.7501
 Leave Link  502 at Sat Feb 16 13:49:39 2019, MaxMem=   196608000 cpu:       109.6
 (Enter /cm/shared/c3ddb/gaussian/09.d01/g09/l508.exe)
 QCSCF skips out because SCF is already converged.
 Leave Link  508 at Sat Feb 16 13:49:39 2019, MaxMem=   196608000 cpu:         0.0
 (Enter /cm/shared/c3ddb/gaussian/09.d01/g09/l801.exe)
 DoSCS=F DFT=T ScalE2(SS,OS)=  1.000000  1.000000
 Range of M.O.s used for correlation:     1    72
 NBasis=    72 NAE=    12 NBE=    11 NFC=     0 NFV=     0
 NROrb=     72 NOA=    12 NOB=    11 NVA=    60 NVB=    61
 Leave Link  801 at Sat Feb 16 13:49:40 2019, MaxMem=   196608000 cpu:         0.2
 (Enter /cm/shared/c3ddb/gaussian/09.d01/g09/l1101.exe)
 Using compressed storage, NAtomX=     6.
 Will process      7 centers per pass.
 Leave Link 1101 at Sat Feb 16 13:49:41 2019, MaxMem=   196608000 cpu:         6.9
 (Enter /cm/shared/c3ddb/gaussian/09.d01/g09/l1102.exe)
 Symmetrizing basis deriv contribution to polar:
 IMax=3 JMax=2 DiffMx= 0.00D+00
 Leave Link 1102 at Sat Feb 16 13:49:41 2019, MaxMem=   196608000 cpu:         0.5
 (Enter /cm/shared/c3ddb/gaussian/09.d01/g09/l1110.exe)
 Forming Gx(P) for the SCF density, NAtomX=     6.
 Integral derivatives from FoFJK, PRISM(SPDF).
 Do as many integral derivatives as possible in FoFJK.
 G2DrvN: MDV=     196607848.
 G2DrvN: will do     7 centers at a time, making    1 passes.
 Calling FoFCou, ICntrl=  3107 FMM=F I1Cent=   0 AccDes= 0.00D+00.
 FoFJK:  IHMeth= 1 ICntrl=    3107 DoSepK=F KAlg= 0 I1Cent=   0 FoldK=F
 IRaf=         0 NMat=   1 IRICut=       1 DoRegI=T DoRafI=F ISym2E= 0.
 FoFCou: FMM=F IPFlag=           0 FMFlag=      100000 FMFlg1=           0
         NFxFlg=           0 DoJE=F BraDBF=F KetDBF=F FulRan=T
         wScrn=  0.000000 ICntrl=    3107 IOpCl=  1 I1Cent=           0 NGrid=           0
         NMat0=    1 NMatS0=      1 NMatT0=    0 NMatD0=    1 NMtDS0=    0 NMtDT0=    0
 Symmetry not used in FoFCou.
 End of G2Drv F.D. properties file   721 does not exist.
 End of G2Drv F.D. properties file   722 does not exist.
 End of G2Drv F.D. properties file   788 does not exist.
 Leave Link 1110 at Sat Feb 16 13:49:47 2019, MaxMem=   196608000 cpu:        34.6
 (Enter /cm/shared/c3ddb/gaussian/09.d01/g09/l1002.exe)
 Minotr:  UHF open shell wavefunction.
          IDoAtm=111111
          Direct CPHF calculation.
          Differentiating once with respect to nuclear coordinates.
          Requested convergence is 1.0D-08 RMS, and 1.0D-07 maximum.
          Secondary convergence is 1.0D-12 RMS, and 1.0D-12 maximum.
          NewPWx=T KeepS1=F KeepF1=F KeepIn=T MapXYZ=F SortEE=F KeepMc=T.
          MDV=     196607792 using IRadAn=       2.
 Generate precomputed XC quadrature information.
 Keep R1 and R2 ints in memory in canonical form, NReq=7803650.
 FoFCou: FMM=F IPFlag=           0 FMFlag=           0 FMFlg1=           0
         NFxFlg=           0 DoJE=F BraDBF=F KetDBF=F FulRan=T
         wScrn=  0.000000 ICntrl=     600 IOpCl=  0 I1Cent=           0 NGrid=           0
         NMat0=    1 NMatS0=   2628 NMatT0=    0 NMatD0=    1 NMtDS0=    0 NMtDT0=    0
 Symmetry not used in FoFCou.
          Solving linear equations simultaneously, MaxMat=       0.
          There are    21 degrees of freedom in the 1st order CPHF.  IDoFFX=6 NUNeed=     0.
     15 vectors produced by pass  0 Test12= 6.62D-15 4.76D-09 XBig12= 2.25D-01 2.92D-01.
 AX will form    15 AO Fock derivatives at one time.
     15 vectors produced by pass  1 Test12= 6.62D-15 4.76D-09 XBig12= 1.31D-01 1.90D-01.
     15 vectors produced by pass  2 Test12= 6.62D-15 4.76D-09 XBig12= 5.43D-03 2.57D-02.
     15 vectors produced by pass  3 Test12= 6.62D-15 4.76D-09 XBig12= 7.60D-05 2.57D-03.
     15 vectors produced by pass  4 Test12= 6.62D-15 4.76D-09 XBig12= 4.85D-07 1.70D-04.
     15 vectors produced by pass  5 Test12= 6.62D-15 4.76D-09 XBig12= 3.39D-09 1.21D-05.
     12 vectors produced by pass  6 Test12= 6.62D-15 4.76D-09 XBig12= 2.13D-11 7.63D-07.
      4 vectors produced by pass  7 Test12= 6.62D-15 4.76D-09 XBig12= 6.81D-14 3.94D-08.
 InvSVY:  IOpt=1 It=  1 EMax= 1.78D-15
 Solved reduced A of dimension   106 with    15 vectors.
 End of Minotr F.D. properties file   721 does not exist.
 End of Minotr F.D. properties file   722 does not exist.
 End of Minotr F.D. properties file   788 does not exist.
 Leave Link 1002 at Sat Feb 16 13:50:02 2019, MaxMem=   196608000 cpu:        89.8
 (Enter /cm/shared/c3ddb/gaussian/09.d01/g09/l601.exe)
 Copying SCF densities to generalized density rwf, IOpCl= 1 IROHF=0.

 **********************************************************************

            Population analysis using the SCF density.

 **********************************************************************

 Orbital symmetries:
 Alpha Orbitals:
       Occupied  (A) (A) (A) (A) (A) (A) (A) (A) (A) (A) (A) (A)
       Virtual   (A) (A) (A) (A) (A) (A) (A) (A) (A) (A) (A) (A)
                 (A) (A) (A) (A) (A) (A) (A) (A) (A) (A) (A) (A)
                 (A) (A) (A) (A) (A) (A) (A) (A) (A) (A) (A) (A)
                 (A) (A) (A) (A) (A) (A) (A) (A) (A) (A) (A) (A)
                 (A) (A) (A) (A) (A) (A) (A) (A) (A) (A) (A) (A)
 Beta  Orbitals:
       Occupied  (A) (A) (A) (A) (A) (A) (A) (A) (A) (A) (A)
       Virtual   (A) (A) (A) (A) (A) (A) (A) (A) (A) (A) (A) (A)
                 (A) (A) (A) (A) (A) (A) (A) (A) (A) (A) (A) (A)
                 (A) (A) (A) (A) (A) (A) (A) (A) (A) (A) (A) (A)
                 (A) (A) (A) (A) (A) (A) (A) (A) (A) (A) (A) (A)
                 (A) (A) (A) (A) (A) (A) (A) (A) (A) (A) (A) (A)
                 (A)
 The electronic state is 2-A.
 Alpha  occ. eigenvalues --  -19.13157 -10.25978 -10.22482  -1.03150  -0.76964
 Alpha  occ. eigenvalues --   -0.58944  -0.49997  -0.45514  -0.41517  -0.41149
 Alpha  occ. eigenvalues --   -0.27726  -0.27689
 Alpha virt. eigenvalues --   -0.01028   0.04892   0.06840   0.10930   0.19724
 Alpha virt. eigenvalues --    0.24664   0.31969   0.33929   0.37193   0.41675
 Alpha virt. eigenvalues --    0.45601   0.54314   0.56569   0.58228   0.61914
 Alpha virt. eigenvalues --    0.64729   0.72185   0.82474   0.82669   0.94126
 Alpha virt. eigenvalues --    0.98736   1.03053   1.23120   1.30209   1.38192
 Alpha virt. eigenvalues --    1.38905   1.43714   1.51553   1.55611   1.58479
 Alpha virt. eigenvalues --    1.72919   1.75314   1.90801   1.92073   2.00427
 Alpha virt. eigenvalues --    2.06584   2.08973   2.22295   2.46216   2.49531
 Alpha virt. eigenvalues --    2.52456   2.52913   2.60752   2.70966   2.77834
 Alpha virt. eigenvalues --    2.86916   2.90800   3.07119   3.23367   3.28240
 Alpha virt. eigenvalues --    3.44424   3.65562   3.82754   4.07073   4.80300
 Alpha virt. eigenvalues --    4.93751   5.50573  23.66785  23.91590  49.87018
  Beta  occ. eigenvalues --  -19.12026 -10.26244 -10.21411  -1.01054  -0.74341
  Beta  occ. eigenvalues --   -0.58207  -0.49342  -0.44628  -0.40804  -0.36752
  Beta  occ. eigenvalues --   -0.26549
  Beta virt. eigenvalues --   -0.14372   0.02277   0.05216   0.07100   0.11106
  Beta virt. eigenvalues --    0.19903   0.24850   0.32794   0.35270   0.39325
  Beta virt. eigenvalues --    0.42157   0.47533   0.54509   0.56967   0.58664
  Beta virt. eigenvalues --    0.62786   0.65189   0.73347   0.83155   0.85722
  Beta virt. eigenvalues --    0.94658   1.00925   1.04940   1.23539   1.31478
  Beta virt. eigenvalues --    1.38729   1.39805   1.43556   1.53882   1.55598
  Beta virt. eigenvalues --    1.59274   1.73536   1.75999   1.92000   1.93260
  Beta virt. eigenvalues --    2.02324   2.07316   2.09183   2.22331   2.46552
  Beta virt. eigenvalues --    2.49789   2.52712   2.54784   2.61461   2.74344
  Beta virt. eigenvalues --    2.78563   2.90478   2.93749   3.07757   3.26157
  Beta virt. eigenvalues --    3.29291   3.44904   3.67076   3.83318   4.08216
  Beta virt. eigenvalues --    4.85251   4.94707   5.51421  23.67108  23.92216
  Beta virt. eigenvalues --   49.88163
          Condensed to atoms (all electrons):
               1          2          3          4          5          6
     1  O    7.881068  -0.083826   0.528547   0.004435   0.008035  -0.045868
     2  C   -0.083826   5.239108   0.403376   0.352155   0.371680  -0.102784
     3  C    0.528547   0.403376   4.608748  -0.017918  -0.025711   0.391433
     4  H    0.004435   0.352155  -0.017918   0.554209  -0.025737   0.003088
     5  H    0.008035   0.371680  -0.025711  -0.025737   0.518118   0.009526
     6  H   -0.045868  -0.102784   0.391433   0.003088   0.009526   0.657885
          Atomic-Atomic Spin Densities.
               1          2          3          4          5          6
     1  O    0.478569  -0.019454  -0.030687  -0.000166   0.000166   0.000909
     2  C   -0.019454   0.812942   0.023862   0.002948   0.000061   0.000690
     3  C   -0.030687   0.023862  -0.174591  -0.001166  -0.000953   0.003872
     4  H   -0.000166   0.002948  -0.001166  -0.041555   0.002963   0.000102
     5  H    0.000166   0.000061  -0.000953   0.002963  -0.038430  -0.000308
     6  H    0.000909   0.000690   0.003872   0.000102  -0.000308  -0.002616
 Mulliken charges and spin densities:
               1          2
     1  O   -0.292391   0.429337
     2  C   -0.179709   0.821050
     3  C    0.111525  -0.179663
     4  H    0.129768  -0.036874
     5  H    0.144088  -0.036500
     6  H    0.086719   0.002650
 Sum of Mulliken charges =   0.00000   1.00000
 Mulliken charges and spin densities with hydrogens summed into heavy atoms:
               1          2
     1  O   -0.292391   0.429337
     2  C    0.094146   0.747676
     3  C    0.198245  -0.177013
 APT charges:
               1
     1  O   -0.124202
     2  C   -0.521775
     3  C   -0.418322
     4  H    0.423689
     5  H    0.335148
     6  H    0.305461
 Sum of APT charges =   0.00000
 APT charges with hydrogens summed into heavy atoms:
               1
     1  O   -0.124202
     2  C    0.237063
     3  C   -0.112861
 Electronic spatial extent (au):  <R**2>=            153.5263
 Charge=              0.0000 electrons
 Dipole moment (field-independent basis, Debye):
    X=             -2.8189    Y=              0.8993    Z=              0.0000  Tot=              2.9589
 Quadrupole moment (field-independent basis, Debye-Ang):
   XX=            -18.9867   YY=            -16.5730   ZZ=            -18.3842
   XY=              0.9333   XZ=              0.0000   YZ=              0.0000
 Traceless Quadrupole moment (field-independent basis, Debye-Ang):
   XX=             -1.0054   YY=              1.4083   ZZ=             -0.4029
   XY=              0.9333   XZ=              0.0000   YZ=              0.0000
 Octapole moment (field-independent basis, Debye-Ang**2):
  XXX=             -3.1196  YYY=             -0.7580  ZZZ=              0.0000  XYY=              0.0611
  XXY=              0.7316  XXZ=              0.0000  XZZ=              2.5727  YZZ=             -0.3705
  YYZ=              0.0000  XYZ=              0.0000
 Hexadecapole moment (field-independent basis, Debye-Ang**3):
 XXXX=           -131.6088 YYYY=            -40.0946 ZZZZ=            -17.8248 XXXY=             -3.3457
 XXXZ=              0.0000 YYYX=              1.2485 YYYZ=              0.0000 ZZZX=              0.0000
 ZZZY=              0.0000 XXYY=            -28.3417 XXZZ=            -26.0625 YYZZ=            -10.7222
 XXYZ=              0.0000 YYXZ=              0.0000 ZZXY=             -0.5904
 N-N= 6.251956450074D+01 E-N=-4.838315587870D+02  KE= 1.525347349383D+02
  Exact polarizability:   0.000   0.000   0.000   0.000   0.000   0.000
 Approx polarizability:  58.564  -4.565  34.362   0.000   0.000  18.051
                          Isotropic Fermi Contact Couplings
        Atom                 a.u.       MegaHertz       Gauss      10(-4) cm-1
     1  O(17)              0.02924     -17.72753      -6.32562      -5.91327
     2  C(13)              0.04649      52.26622      18.64989      17.43414
     3  C(13)             -0.04021     -45.20264     -16.12943     -15.07798
     4  H(1)              -0.01069     -47.78717     -17.05165     -15.94009
     5  H(1)              -0.01052     -47.00970     -16.77423     -15.68075
     6  H(1)               0.00068       3.02044       1.07777       1.00751
 --------------------------------------------------------
       Center         ----  Spin Dipole Couplings  ----
                      3XX-RR        3YY-RR        3ZZ-RR
 --------------------------------------------------------
     1   Atom       -0.861020     -0.864956      1.725975
     2   Atom       -0.431570     -0.434125      0.865694
     3   Atom        0.109839      0.057670     -0.167509
     4   Atom        0.025448     -0.020964     -0.004485
     5   Atom       -0.048696      0.054873     -0.006177
     6   Atom        0.008156      0.001870     -0.010026
 --------------------------------------------------------
                        XY            XZ            YZ
 --------------------------------------------------------
     1   Atom       -0.006170      0.000000      0.000001
     2   Atom       -0.003715      0.000000     -0.000001
     3   Atom       -0.009797      0.000000      0.000000
     4   Atom       -0.052237      0.000000      0.000000
     5   Atom        0.011016      0.000000      0.000000
     6   Atom        0.006595      0.000000      0.000000
 --------------------------------------------------------


 ---------------------------------------------------------------------------------
              Anisotropic Spin Dipole Couplings in Principal Axis System
 ---------------------------------------------------------------------------------

       Atom             a.u.   MegaHertz   Gauss  10(-4) cm-1        Axes

              Baa    -0.8695    62.914    22.449    20.986  0.5900  0.8074  0.0000
     1 O(17)  Bbb    -0.8565    61.977    22.115    20.673  0.8074 -0.5900  0.0000
              Bcc     1.7260  -124.890   -44.564   -41.659  0.0000  0.0000  1.0000
 
              Baa    -0.4368   -58.611   -20.914   -19.551  0.5809  0.8140  0.0000
     2 C(13)  Bbb    -0.4289   -57.557   -20.538   -19.199  0.8140 -0.5809  0.0000
              Bcc     0.8657   116.168    41.452    38.749  0.0000  0.0000  1.0000
 
              Baa    -0.1675   -22.478    -8.021    -7.498  0.0000  0.0000  1.0000
     3 C(13)  Bbb     0.0559     7.500     2.676     2.502  0.1787  0.9839  0.0000
              Bcc     0.1116    14.978     5.345     4.996  0.9839 -0.1787  0.0000
 
              Baa    -0.0549   -29.301   -10.455    -9.774  0.5450  0.8384  0.0000
     4 H(1)   Bbb    -0.0045    -2.393    -0.854    -0.798  0.0000  0.0000  1.0000
              Bcc     0.0594    31.694    11.309    10.572  0.8384 -0.5450  0.0000
 
              Baa    -0.0499   -26.600    -9.492    -8.873  0.9945 -0.1046  0.0000
     5 H(1)   Bbb    -0.0062    -3.296    -1.176    -1.099  0.0000  0.0000  1.0000
              Bcc     0.0560    29.896    10.668     9.972  0.1046  0.9945  0.0000
 
              Baa    -0.0100    -5.349    -1.909    -1.784  0.0000  0.0000  1.0000
     6 H(1)   Bbb    -0.0023    -1.223    -0.437    -0.408 -0.5337  0.8456  0.0000
              Bcc     0.0123     6.573     2.345     2.192  0.8456  0.5337  0.0000
 

 ---------------------------------------------------------------------------------

 No NMR shielding tensors so no spin-rotation constants.
 Leave Link  601 at Sat Feb 16 13:50:03 2019, MaxMem=   196608000 cpu:         6.8
 (Enter /cm/shared/c3ddb/gaussian/09.d01/g09/l701.exe)
 Compute integral second derivatives.
 ... and contract with generalized density number  0.
 Leave Link  701 at Sat Feb 16 13:50:04 2019, MaxMem=   196608000 cpu:         4.1
 (Enter /cm/shared/c3ddb/gaussian/09.d01/g09/l702.exe)
 L702 exits ... SP integral derivatives will be done elsewhere.
 Leave Link  702 at Sat Feb 16 13:50:04 2019, MaxMem=   196608000 cpu:         0.2
 (Enter /cm/shared/c3ddb/gaussian/09.d01/g09/l703.exe)
 Compute integral second derivatives, UseDBF=F ICtDFT=           0.
 Integral derivatives from FoFJK, PRISM(SPDF).
 Calling FoFJK, ICntrl=    100147 FMM=F ISym2X=0 I1Cent= 0 IOpClX= 1 NMat=1 NMatS=1 NMatT=0.
 FoFJK:  IHMeth= 1 ICntrl=  100147 DoSepK=F KAlg= 0 I1Cent=   0 FoldK=F
 IRaf=         0 NMat=   1 IRICut=       1 DoRegI=T DoRafI=F ISym2E= 0.
 FoFCou: FMM=F IPFlag=           0 FMFlag=      100000 FMFlg1=         800
         NFxFlg=           0 DoJE=F BraDBF=F KetDBF=F FulRan=T
         wScrn=  0.000000 ICntrl=  100147 IOpCl=  1 I1Cent=           0 NGrid=           0
         NMat0=    1 NMatS0=      1 NMatT0=    0 NMatD0=    1 NMtDS0=    0 NMtDT0=    0
 Symmetry not used in FoFCou.
 Leave Link  703 at Sat Feb 16 13:50:10 2019, MaxMem=   196608000 cpu:        42.7
 (Enter /cm/shared/c3ddb/gaussian/09.d01/g09/l716.exe)
 Dipole        =-1.10905617D+00 3.53810413D-01-3.01097411D-07
 Polarizability= 0.00000000D+00 0.00000000D+00 0.00000000D+00
                 0.00000000D+00 0.00000000D+00 0.00000000D+00
 ***** Axes restored to original set *****
 -------------------------------------------------------------------
 Center     Atomic                   Forces (Hartrees/Bohr)
 Number     Number              X              Y              Z
 -------------------------------------------------------------------
      1        8           0.047396837    0.012134730   -0.008768358
      2        6          -0.003277018   -0.003518692   -0.001239535
      3        6          -0.037912857   -0.005487307    0.009919988
      4        1          -0.005100588   -0.001335842    0.000922969
      5        1           0.002222709   -0.003651000   -0.003317851
      6        1          -0.003329084    0.001858111    0.002482789
 -------------------------------------------------------------------
 Cartesian Forces:  Max     0.047396837 RMS     0.015165356
 Force constants in Cartesian coordinates: 
                1             2             3             4             5 
      1  0.419137D+00
      2  0.940530D-01  0.954529D-01
      3 -0.730361D-01  0.577147D-02  0.680985D-01
      4 -0.741092D-01 -0.524363D-01 -0.398459D-02  0.576037D+00
      5 -0.860334D-01 -0.136218D-01  0.115002D-01  0.587051D-01  0.427479D+00
      6 -0.271256D-01 -0.639820D-03  0.241769D-01 -0.136190D+00  0.213140D+00
      7 -0.306420D+00 -0.517025D-01  0.521513D-01 -0.798801D-01  0.146256D-01
      8 -0.441811D-02 -0.973970D-01 -0.217235D-01 -0.445645D-01 -0.195512D+00
      9  0.847197D-01 -0.463762D-02 -0.973473D-01 -0.241576D-01 -0.973911D-01
     10 -0.109938D-02 -0.398732D-02 -0.145951D-02 -0.303475D+00 -0.580168D-01
     11 -0.402570D-02 -0.423184D-02 -0.315591D-02 -0.542615D-01 -0.609897D-01
     12 -0.148594D-02 -0.316978D-02  0.815640D-03  0.633942D-01 -0.409859D-02
     13  0.789129D-03  0.231122D-02 -0.173761D-03 -0.128439D+00  0.820990D-01
     14  0.555821D-03  0.204621D-02  0.403069D-02  0.795964D-01 -0.148582D+00
     15 -0.138281D-02  0.339639D-02 -0.125829D-02  0.909418D-01 -0.112386D+00
     16 -0.382977D-01  0.117619D-01  0.265027D-01  0.986528D-02 -0.113794D-01
     17 -0.131618D-03  0.177515D-01  0.357699D-02  0.129607D-01 -0.877367D-02
     18  0.183108D-01 -0.720637D-03  0.551449D-02  0.999624D-02 -0.107642D-01
                6             7             8             9            10 
      6  0.283253D+00
      7  0.166114D-01  0.481370D+00
      8 -0.760032D-01 -0.155104D-01  0.441911D+00
      9 -0.120139D+00 -0.126216D+00  0.198651D+00  0.344071D+00
     10  0.608076D-01 -0.553865D-02  0.422979D-02  0.748515D-02  0.316289D+00
     11 -0.545556D-02 -0.217693D-01  0.582633D-02  0.697960D-02  0.630979D-01
     12 -0.503328D-01 -0.104225D-01 -0.241497D-02  0.921619D-02 -0.658608D-01
     13  0.926655D-01  0.105550D-01 -0.927398D-02 -0.771794D-02 -0.629902D-02
     14 -0.111482D+00  0.158731D-01 -0.958603D-02 -0.170727D-01 -0.530284D-02
     15 -0.138755D+00  0.960280D-02 -0.798606D-02 -0.209682D-02  0.329673D-03
     16 -0.676873D-02 -0.100086D+00  0.695372D-01  0.658869D-01  0.122876D-03
     17 -0.195594D-01  0.584835D-01 -0.145243D+00 -0.865296D-01 -0.207543D-04
     18  0.179788D-02  0.582733D-01 -0.905238D-01 -0.133704D+00 -0.130211D-02
               11            12            13            14            15 
     11  0.526685D-01
     12  0.400835D-02  0.403061D-01
     13  0.154203D-01  0.146033D-01  0.123873D+00
     14  0.758447D-02  0.388815D-02 -0.874475D-01  0.150242D+00
     15 -0.360001D-02  0.212268D-02 -0.990413D-01  0.123737D+00  0.137485D+00
     16  0.153816D-02 -0.228369D-03 -0.479740D-03 -0.327506D-02 -0.450149D-03
     17 -0.857783D-03  0.178684D-02 -0.310906D-02 -0.170398D-02 -0.316164D-02
     18  0.122353D-02 -0.212785D-02 -0.335822D-03 -0.310165D-02  0.250227D-02
               16            17            18 
     16  0.128875D+00
     17 -0.681827D-01  0.138826D+00
     18 -0.849424D-01  0.103887D+00  0.126017D+00
 FormGI is forming the generalized inverse of G from B-inverse, IUseBI=4.
 Force constants in internal coordinates: 
                1             2             3             4             5 
      1  0.456658D+00
      2  0.123569D+00  0.330677D+00
      3  0.202073D-02  0.149163D-02  0.343880D+00
      4  0.710238D-03  0.331128D-02 -0.150911D-03  0.345912D+00
      5  0.329012D-01  0.581736D-02  0.926852D-03 -0.191990D-03  0.303324D+00
      6  0.727053D-02  0.682706D-02  0.497640D-02 -0.974615D-02 -0.711061D-03
      7 -0.485776D-02  0.686433D-02 -0.100358D-01  0.574904D-02  0.247410D-02
      8 -0.241277D-02 -0.136914D-01  0.505945D-02  0.399711D-02 -0.176304D-02
      9  0.300297D-01  0.669349D-02  0.711029D-02 -0.629045D-02 -0.116888D-01
     10  0.126974D-01 -0.197169D-01 -0.359441D-02  0.583066D-03  0.509655D-03
     11 -0.427271D-01  0.130234D-01 -0.351588D-02  0.570739D-02  0.111792D-01
     12  0.000000D+00  0.000000D+00  0.000000D+00  0.000000D+00  0.000000D+00
     13  0.000000D+00  0.000000D+00  0.000000D+00  0.000000D+00  0.000000D+00
     14  0.000000D+00  0.000000D+00  0.000000D+00  0.000000D+00  0.000000D+00
     15  0.000000D+00  0.000000D+00  0.000000D+00  0.000000D+00  0.000000D+00
                6             7             8             9            10 
      6  0.730244D-01
      7 -0.381968D-01  0.695003D-01
      8 -0.348276D-01 -0.313034D-01  0.661310D-01
      9  0.183940D-01 -0.187949D-01  0.400946D-03  0.135234D+00
     10 -0.451083D-02  0.232701D-02  0.218382D-02 -0.747709D-01  0.111762D+00
     11 -0.138831D-01  0.164679D-01 -0.258477D-02 -0.604634D-01 -0.369909D-01
     12  0.000000D+00  0.000000D+00  0.000000D+00  0.000000D+00  0.000000D+00
     13  0.000000D+00  0.000000D+00  0.000000D+00  0.000000D+00  0.000000D+00
     14  0.000000D+00  0.000000D+00  0.000000D+00  0.000000D+00  0.000000D+00
     15  0.000000D+00  0.000000D+00  0.000000D+00  0.000000D+00  0.000000D+00
               11            12            13            14            15 
     11  0.974544D-01
     12  0.000000D+00  0.231572D-01
     13  0.000000D+00 -0.649334D-02  0.243763D-01
     14  0.000000D+00  0.112039D-01 -0.190114D-01  0.262182D-01
     15  0.000000D+00 -0.184467D-01  0.118583D-01 -0.399704D-02  0.263079D-01
 Leave Link  716 at Sat Feb 16 13:50:10 2019, MaxMem=   196608000 cpu:         0.7
 (Enter /cm/shared/c3ddb/gaussian/09.d01/g09/l103.exe)

 GradGradGradGradGradGradGradGradGradGradGradGradGradGradGradGradGradGrad
 Berny optimization.
 Red2BG is reusing G-inverse.
 Internal  Forces:  Max     0.049698860 RMS     0.013364768
 Search for a local minimum.
 Step number   1 out of a maximum of   25
 All quantities printed in internal units (Hartrees-Bohrs-Radians)
 RMS Force = .13365D-01 SwitMx=.10000D-02 MixMth= 1
 Mixed Optimization -- RFO/linear search
 Second derivative matrix not updated -- analytic derivatives used.
 The second derivative matrix:
                          R1        R2        R3        R4        R5
           R1           0.45666
           R2           0.12357   0.33068
           R3           0.00202   0.00149   0.34388
           R4           0.00071   0.00331  -0.00015   0.34591
           R5           0.03290   0.00582   0.00093  -0.00019   0.30332
           A1           0.00727   0.00683   0.00498  -0.00975  -0.00071
           A2          -0.00486   0.00686  -0.01004   0.00575   0.00247
           A3          -0.00241  -0.01369   0.00506   0.00400  -0.00176
           A4           0.03003   0.00669   0.00711  -0.00629  -0.01169
           A5           0.01270  -0.01972  -0.00359   0.00058   0.00051
           A6          -0.04273   0.01302  -0.00352   0.00571   0.01118
           D1           0.00000   0.00000   0.00000   0.00000   0.00000
           D2           0.00000   0.00000   0.00000   0.00000   0.00000
           D3           0.00000   0.00000   0.00000   0.00000   0.00000
           D4           0.00000   0.00000   0.00000   0.00000   0.00000
                          A1        A2        A3        A4        A5
           A1           0.07302
           A2          -0.03820   0.06950
           A3          -0.03483  -0.03130   0.06613
           A4           0.01839  -0.01879   0.00040   0.13523
           A5          -0.00451   0.00233   0.00218  -0.07477   0.11176
           A6          -0.01388   0.01647  -0.00258  -0.06046  -0.03699
           D1           0.00000   0.00000   0.00000   0.00000   0.00000
           D2           0.00000   0.00000   0.00000   0.00000   0.00000
           D3           0.00000   0.00000   0.00000   0.00000   0.00000
           D4           0.00000   0.00000   0.00000   0.00000   0.00000
                          A6        D1        D2        D3        D4
           A6           0.09745
           D1           0.00000   0.02316
           D2           0.00000  -0.00649   0.02438
           D3           0.00000   0.01120  -0.01901   0.02622
           D4           0.00000  -0.01845   0.01186  -0.00400   0.02631
 ITU=  0
     Eigenvalues ---    0.01214   0.02738   0.06054   0.09080   0.09931
     Eigenvalues ---    0.13016   0.20570   0.26886   0.30482   0.34461
     Eigenvalues ---    0.34789   0.54142
 RFO step:  Lambda=-5.59494841D-03 EMin= 1.21399066D-02
 Linear search not attempted -- first point.
 Iteration  1 RMS(Cart)=  0.02451438 RMS(Int)=  0.00006733
 Iteration  2 RMS(Cart)=  0.00007368 RMS(Int)=  0.00000000
 Iteration  3 RMS(Cart)=  0.00000000 RMS(Int)=  0.00000000
 ITry= 1 IFail=0 DXMaxC= 7.71D-02 DCOld= 1.00D+10 DXMaxT= 3.00D-01 DXLimC= 3.00D+00 Rises=F
 Variable       Old X    -DE/DX   Delta X   Delta X   Delta X     New X
                                 (Linear)    (Quad)   (Total)
    R1        2.41957  -0.04970   0.00000  -0.11226  -0.11226   2.30731
    R2        2.68983  -0.01102   0.00000   0.01021   0.01021   2.70004
    R3        2.06318  -0.00535   0.00000  -0.01526  -0.01526   2.04792
    R4        2.06238  -0.00537   0.00000  -0.01463  -0.01463   2.04775
    R5        2.09485  -0.00439   0.00000  -0.00155  -0.00155   2.09329
    A1        2.11438   0.00005   0.00000   0.00377   0.00377   2.11815
    A2        2.08739  -0.00070   0.00000  -0.00958  -0.00958   2.07780
    A3        2.08142   0.00065   0.00000   0.00581   0.00581   2.08723
    A4        2.14575  -0.00218   0.00000   0.00510   0.00510   2.15085
    A5        2.09285  -0.00015   0.00000   0.01072   0.01072   2.10358
    A6        2.04458   0.00232   0.00000  -0.01582  -0.01582   2.02876
    D1        3.14159   0.00000   0.00000   0.00000   0.00000   3.14159
    D2        0.00000   0.00000   0.00000   0.00000   0.00000   0.00000
    D3        0.00000   0.00000   0.00000   0.00000   0.00000   0.00000
    D4        3.14159   0.00000   0.00000   0.00000   0.00000   3.14159
         Item               Value     Threshold  Converged?
 Maximum Force            0.049699     0.000450     NO 
 RMS     Force            0.013365     0.000300     NO 
 Maximum Displacement     0.077083     0.001800     NO 
 RMS     Displacement     0.024517     0.001200     NO 
 Predicted change in Energy=-2.835764D-03
 Lowest energy point so far.  Saving SCF results.
 GradGradGradGradGradGradGradGradGradGradGradGradGradGradGradGradGradGrad

 Leave Link  103 at Sat Feb 16 13:50:12 2019, MaxMem=   196608000 cpu:         9.9
 (Enter /cm/shared/c3ddb/gaussian/09.d01/g09/l202.exe)
                          Input orientation:                          
 ---------------------------------------------------------------------
 Center     Atomic      Atomic             Coordinates (Angstroms)
 Number     Number       Type             X           Y           Z
 ---------------------------------------------------------------------
      1          8           0        0.992996   -0.154581    0.257794
      2          6           0        2.814372    1.267953    0.579464
      3          6           0        2.159385    0.124018    0.028222
      4          1           0        3.851840    1.486484    0.355103
      5          1           0        2.258207    1.927752    1.234886
      6          1           0        2.771191   -0.518278   -0.635251
 ---------------------------------------------------------------------
                    Distance matrix (angstroms):
                    1          2          3          4          5
     1  O    0.000000
     2  C    2.333341   0.000000
     3  C    1.220976   1.428798   0.000000
     4  H    3.297810   1.083713   2.197173   0.000000
     5  H    2.625181   1.083620   2.172386   1.873073   0.000000
     6  H    2.022816   2.160560   1.107722   2.483480   3.121479
                    6
     6  H    0.000000
 Stoichiometry    C2H3O(2)
 Framework group  C1[X(C2H3O)]
 Deg. of freedom    12
 Full point group                 C1      NOp   1
 RotChk:  IX=2 Diff= 2.15D-02
 Largest Abelian subgroup         C1      NOp   1
 Largest concise Abelian subgroup C1      NOp   1
                         Standard orientation:                         
 ---------------------------------------------------------------------
 Center     Atomic      Atomic             Coordinates (Angstroms)
 Number     Number       Type             X           Y           Z
 ---------------------------------------------------------------------
      1          8           0        1.162743   -0.265214    0.000000
      2          6           0       -1.168601   -0.168688    0.000000
      3          6           0        0.140842    0.402994    0.000000
      4          1           0       -2.055745    0.453734    0.000000
      5          1           0       -1.271783   -1.247385    0.000000
      6          1           0        0.192138    1.509528    0.000000
 ---------------------------------------------------------------------
 Rotational constants (GHZ):     67.7957371     11.4926836      9.8268442
 Leave Link  202 at Sat Feb 16 13:50:12 2019, MaxMem=   196608000 cpu:         0.5
 (Enter /cm/shared/c3ddb/gaussian/09.d01/g09/l301.exe)
 Standard basis: 6-311G(2d,d,p) (5D, 7F)
 Ernie: Thresh=  0.10000D-02 Tol=  0.10000D-05 Strict=F.
 There are    75 symmetry adapted cartesian basis functions of A   symmetry.
 There are    72 symmetry adapted basis functions of A   symmetry.
    72 basis functions,   120 primitive gaussians,    75 cartesian basis functions
    12 alpha electrons       11 beta electrons
       nuclear repulsion energy        63.7791080109 Hartrees.
 IExCor=  402 DFT=T Ex+Corr=B3LYP ExCW=0 ScaHFX=  0.200000
 ScaDFX=  0.800000  0.720000  1.000000  0.810000 ScalE2=  1.000000  1.000000
 IRadAn=      0 IRanWt=     -1 IRanGd=            0 ICorTp=0 IEmpDi=  4
 NAtoms=    6 NActive=    6 NUniq=    6 SFac= 1.00D+00 NAtFMM=   60 NAOKFM=F Big=F
 Integral buffers will be    131072 words long.
 Raffenetti 2 integral format.
 Two-electron integral symmetry is turned on.
 Leave Link  301 at Sat Feb 16 13:50:12 2019, MaxMem=   196608000 cpu:         0.3
 (Enter /cm/shared/c3ddb/gaussian/09.d01/g09/l302.exe)
 NPDir=0 NMtPBC=     1 NCelOv=     1 NCel=       1 NClECP=     1 NCelD=      1
         NCelK=      1 NCelE2=     1 NClLst=     1 CellRange=     0.0.
 One-electron integrals computed using PRISM.
 NBasis=    72 RedAO= T EigKep=  4.26D-03  NBF=    72
 NBsUse=    72 1.00D-06 EigRej= -1.00D+00 NBFU=    72
 Precomputing XC quadrature grid using
 IXCGrd= 4 IRadAn=           0 IRanWt=          -1 IRanGd=           0 AccXCQ= 0.00D+00.
 Generated NRdTot=       0 NPtTot=           0 NUsed=           0 NTot=          32
 NSgBfM=    75    75    75    75    75 MxSgAt=     6 MxSgA2=     6.
 Leave Link  302 at Sat Feb 16 13:50:13 2019, MaxMem=   196608000 cpu:         4.5
 (Enter /cm/shared/c3ddb/gaussian/09.d01/g09/l303.exe)
 DipDrv:  MaxL=1.
 Leave Link  303 at Sat Feb 16 13:50:13 2019, MaxMem=   196608000 cpu:         0.9
 (Enter /cm/shared/c3ddb/gaussian/09.d01/g09/l401.exe)
 Initial guess from the checkpoint file:  "check.chk"
 B after Tr=     0.000000    0.000000    0.000000
         Rot=    0.999979    0.000000    0.000000    0.006527 Ang=   0.75 deg.
 Guess basis will be translated and rotated to current coordinates.
 JPrj=2 DoOrth=T DoCkMO=T.
 Initial guess <Sx>= 0.0000 <Sy>= 0.0000 <Sz>= 0.5000 <S**2>= 0.7742 S= 0.5120
 Generating alternative initial guess.
 ExpMin= 1.03D-01 ExpMax= 8.59D+03 ExpMxC= 1.30D+03 IAcc=1 IRadAn=         1 AccDes= 0.00D+00
 Harris functional with IExCor=  402 and IRadAn=       1 diagonalized for initial guess.
 HarFok:  IExCor=  402 AccDes= 0.00D+00 IRadAn=         1 IDoV= 1 UseB2=F ITyADJ=14
 ICtDFT=  3500011 ScaDFX=  1.000000  1.000000  1.000000  1.000000
 FoFCou: FMM=F IPFlag=           0 FMFlag=      100000 FMFlg1=           0
         NFxFlg=           0 DoJE=T BraDBF=F KetDBF=T FulRan=T
         wScrn=  0.000000 ICntrl=     500 IOpCl=  0 I1Cent=   200000004 NGrid=           0
         NMat0=    1 NMatS0=      1 NMatT0=    0 NMatD0=    1 NMtDS0=    0 NMtDT0=    0
 Petite list used in FoFCou.
 Harris En= -153.218335632772    
 Leave Link  401 at Sat Feb 16 13:50:15 2019, MaxMem=   196608000 cpu:        13.1
 (Enter /cm/shared/c3ddb/gaussian/09.d01/g09/l502.exe)
 UHF open shell SCF:
 Using DIIS extrapolation, IDIIS=  1040.
 Integral symmetry usage will be decided dynamically.
 Keep R1 and R2 ints in memory in canonical form, NReq=7827000.
 IVT=       23978 IEndB=       23978 NGot=   196608000 MDV=   189675011
 LenX=   189675011 LenY=   189668945
 Requested convergence on RMS density matrix=1.00D-08 within  64 cycles.
 Requested convergence on MAX density matrix=1.00D-06.
 Requested convergence on             energy=1.00D-06.
 No special actions if energy rises.
 FoFCou: FMM=F IPFlag=           0 FMFlag=           0 FMFlg1=           0
         NFxFlg=           0 DoJE=F BraDBF=F KetDBF=F FulRan=T
         wScrn=  0.000000 ICntrl=     600 IOpCl=  0 I1Cent=           0 NGrid=           0
         NMat0=    1 NMatS0=   2628 NMatT0=    0 NMatD0=    1 NMtDS0=    0 NMtDT0=    0
 Symmetry not used in FoFCou.
 Integral accuracy reduced to 1.0D-05 until final iterations.

 Cycle   1  Pass 0  IDiag  1:
 E= -153.213752104753    
 DIIS: error= 5.47D-03 at cycle   1 NSaved=   1.
 NSaved= 1 IEnMin= 1 EnMin= -153.213752104753     IErMin= 1 ErrMin= 5.47D-03
 ErrMax= 5.47D-03  0.00D+00 EMaxC= 1.00D-01 BMatC= 9.75D-03 BMatP= 9.75D-03
 IDIUse=3 WtCom= 9.45D-01 WtEn= 5.47D-02
 Coeff-Com:  0.100D+01
 Coeff-En:   0.100D+01
 Coeff:      0.100D+01
 Gap=     0.768 Goal=   None    Shift=    0.000
 Gap=     0.777 Goal=   None    Shift=    0.000
 GapD=    0.768 DampG=2.000 DampE=1.000 DampFc=2.0000 IDamp=-1.
 RMSDP=7.31D-04 MaxDP=9.12D-03              OVMax= 4.17D-02

 Cycle   2  Pass 0  IDiag  1:
 E= -153.216088010145     Delta-E=       -0.002335905392 Rises=F Damp=F
 DIIS: error= 4.43D-03 at cycle   2 NSaved=   2.
 NSaved= 2 IEnMin= 2 EnMin= -153.216088010145     IErMin= 2 ErrMin= 4.43D-03
 ErrMax= 4.43D-03  0.00D+00 EMaxC= 1.00D-01 BMatC= 2.83D-03 BMatP= 9.75D-03
 IDIUse=3 WtCom= 9.56D-01 WtEn= 4.43D-02
 Coeff-Com:  0.283D+00 0.717D+00
 Coeff-En:   0.000D+00 0.100D+01
 Coeff:      0.271D+00 0.729D+00
 Gap=     0.276 Goal=   None    Shift=    0.000
 Gap=     0.119 Goal=   None    Shift=    0.000
 RMSDP=5.38D-04 MaxDP=1.03D-02 DE=-2.34D-03 OVMax= 2.29D-02

 Cycle   3  Pass 0  IDiag  1:
 E= -153.216016311894     Delta-E=        0.000071698250 Rises=F Damp=F
 DIIS: error= 5.43D-03 at cycle   3 NSaved=   3.
 NSaved= 3 IEnMin= 2 EnMin= -153.216088010145     IErMin= 2 ErrMin= 4.43D-03
 ErrMax= 5.43D-03  0.00D+00 EMaxC= 1.00D-01 BMatC= 3.20D-03 BMatP= 2.83D-03
 IDIUse=3 WtCom= 1.20D-01 WtEn= 8.80D-01
 Coeff-Com:  0.279D-01 0.510D+00 0.462D+00
 Coeff-En:   0.000D+00 0.527D+00 0.473D+00
 Coeff:      0.333D-02 0.525D+00 0.472D+00
 Gap=     0.277 Goal=   None    Shift=    0.000
 Gap=     0.125 Goal=   None    Shift=    0.000
 RMSDP=3.15D-04 MaxDP=5.75D-03 DE= 7.17D-05 OVMax= 2.23D-02

 Cycle   4  Pass 0  IDiag  1:
 E= -153.216643089398     Delta-E=       -0.000626777504 Rises=F Damp=F
 DIIS: error= 1.28D-03 at cycle   4 NSaved=   4.
 NSaved= 4 IEnMin= 4 EnMin= -153.216643089398     IErMin= 4 ErrMin= 1.28D-03
 ErrMax= 1.28D-03  0.00D+00 EMaxC= 1.00D-01 BMatC= 2.02D-04 BMatP= 2.83D-03
 IDIUse=3 WtCom= 9.87D-01 WtEn= 1.28D-02
 Coeff-Com: -0.158D-01 0.178D+00 0.265D+00 0.572D+00
 Coeff-En:   0.000D+00 0.000D+00 0.000D+00 0.100D+01
 Coeff:     -0.156D-01 0.176D+00 0.262D+00 0.578D+00
 Gap=     0.275 Goal=   None    Shift=    0.000
 Gap=     0.125 Goal=   None    Shift=    0.000
 RMSDP=7.16D-05 MaxDP=1.51D-03 DE=-6.27D-04 OVMax= 3.79D-03

 Cycle   5  Pass 0  IDiag  1:
 E= -153.216693796999     Delta-E=       -0.000050707601 Rises=F Damp=F
 DIIS: error= 5.33D-04 at cycle   5 NSaved=   5.
 NSaved= 5 IEnMin= 5 EnMin= -153.216693796999     IErMin= 5 ErrMin= 5.33D-04
 ErrMax= 5.33D-04  0.00D+00 EMaxC= 1.00D-01 BMatC= 1.51D-05 BMatP= 2.02D-04
 IDIUse=3 WtCom= 9.95D-01 WtEn= 5.33D-03
 Coeff-Com: -0.423D-02-0.469D-01 0.965D-02 0.123D+00 0.918D+00
 Coeff-En:   0.000D+00 0.000D+00 0.000D+00 0.000D+00 0.100D+01
 Coeff:     -0.421D-02-0.467D-01 0.960D-02 0.123D+00 0.919D+00
 Gap=     0.275 Goal=   None    Shift=    0.000
 Gap=     0.124 Goal=   None    Shift=    0.000
 RMSDP=5.38D-05 MaxDP=8.95D-04 DE=-5.07D-05 OVMax= 3.49D-03

 Cycle   6  Pass 0  IDiag  1:
 E= -153.216706522880     Delta-E=       -0.000012725881 Rises=F Damp=F
 DIIS: error= 2.36D-04 at cycle   6 NSaved=   6.
 NSaved= 6 IEnMin= 6 EnMin= -153.216706522880     IErMin= 6 ErrMin= 2.36D-04
 ErrMax= 2.36D-04  0.00D+00 EMaxC= 1.00D-01 BMatC= 4.52D-06 BMatP= 1.51D-05
 IDIUse=3 WtCom= 9.98D-01 WtEn= 2.36D-03
 Coeff-Com:  0.270D-02-0.671D-01-0.783D-01-0.167D+00 0.286D+00 0.102D+01
 Coeff-En:   0.000D+00 0.000D+00 0.000D+00 0.000D+00 0.000D+00 0.100D+01
 Coeff:      0.269D-02-0.670D-01-0.781D-01-0.167D+00 0.285D+00 0.102D+01
 Gap=     0.275 Goal=   None    Shift=    0.000
 Gap=     0.124 Goal=   None    Shift=    0.000
 RMSDP=3.22D-05 MaxDP=6.58D-04 DE=-1.27D-05 OVMax= 3.04D-03

 Cycle   7  Pass 0  IDiag  1:
 E= -153.216710678945     Delta-E=       -0.000004156065 Rises=F Damp=F
 DIIS: error= 6.65D-05 at cycle   7 NSaved=   7.
 NSaved= 7 IEnMin= 7 EnMin= -153.216710678945     IErMin= 7 ErrMin= 6.65D-05
 ErrMax= 6.65D-05  0.00D+00 EMaxC= 1.00D-01 BMatC= 9.35D-07 BMatP= 4.52D-06
 IDIUse=1 WtCom= 1.00D+00 WtEn= 0.00D+00
 Coeff-Com:  0.205D-02-0.232D-01-0.392D-01-0.109D+00-0.262D-01 0.497D+00
 Coeff-Com:  0.699D+00
 Coeff:      0.205D-02-0.232D-01-0.392D-01-0.109D+00-0.262D-01 0.497D+00
 Coeff:      0.699D+00
 Gap=     0.274 Goal=   None    Shift=    0.000
 Gap=     0.124 Goal=   None    Shift=    0.000
 RMSDP=1.02D-05 MaxDP=1.88D-04 DE=-4.16D-06 OVMax= 7.91D-04

 Cycle   8  Pass 0  IDiag  1:
 E= -153.216711119341     Delta-E=       -0.000000440396 Rises=F Damp=F
 DIIS: error= 1.66D-05 at cycle   8 NSaved=   8.
 NSaved= 8 IEnMin= 8 EnMin= -153.216711119341     IErMin= 8 ErrMin= 1.66D-05
 ErrMax= 1.66D-05  0.00D+00 EMaxC= 1.00D-01 BMatC= 2.99D-08 BMatP= 9.35D-07
 IDIUse=1 WtCom= 1.00D+00 WtEn= 0.00D+00
 Coeff-Com: -0.189D-03 0.670D-02 0.744D-02 0.124D-01-0.390D-01-0.667D-01
 Coeff-Com:  0.565D-01 0.102D+01
 Coeff:     -0.189D-03 0.670D-02 0.744D-02 0.124D-01-0.390D-01-0.667D-01
 Coeff:      0.565D-01 0.102D+01
 Gap=     0.274 Goal=   None    Shift=    0.000
 Gap=     0.124 Goal=   None    Shift=    0.000
 RMSDP=1.80D-06 MaxDP=3.84D-05 DE=-4.40D-07 OVMax= 1.21D-04

 Initial convergence to 1.0D-05 achieved.  Increase integral accuracy.
 Cycle   9  Pass 1  IDiag  1:
 E= -153.216717216243     Delta-E=       -0.000006096902 Rises=F Damp=F
 DIIS: error= 6.84D-06 at cycle   1 NSaved=   1.
 NSaved= 1 IEnMin= 1 EnMin= -153.216717216243     IErMin= 1 ErrMin= 6.84D-06
 ErrMax= 6.84D-06  0.00D+00 EMaxC= 1.00D-01 BMatC= 1.24D-08 BMatP= 1.24D-08
 IDIUse=1 WtCom= 1.00D+00 WtEn= 0.00D+00
 Coeff-Com:  0.100D+01
 Coeff:      0.100D+01
 Gap=     0.274 Goal=   None    Shift=    0.000
 Gap=     0.124 Goal=   None    Shift=    0.000
 RMSDP=1.80D-06 MaxDP=3.84D-05 DE=-6.10D-06 OVMax= 5.78D-05

 Cycle  10  Pass 1  IDiag  1:
 E= -153.216717218883     Delta-E=       -0.000000002640 Rises=F Damp=F
 DIIS: error= 8.52D-06 at cycle   2 NSaved=   2.
 NSaved= 2 IEnMin= 2 EnMin= -153.216717218883     IErMin= 1 ErrMin= 6.84D-06
 ErrMax= 8.52D-06  0.00D+00 EMaxC= 1.00D-01 BMatC= 1.10D-08 BMatP= 1.24D-08
 IDIUse=1 WtCom= 1.00D+00 WtEn= 0.00D+00
 Coeff-Com:  0.478D+00 0.522D+00
 Coeff:      0.478D+00 0.522D+00
 Gap=     0.274 Goal=   None    Shift=    0.000
 Gap=     0.124 Goal=   None    Shift=    0.000
 RMSDP=8.60D-07 MaxDP=1.54D-05 DE=-2.64D-09 OVMax= 4.02D-05

 Cycle  11  Pass 1  IDiag  1:
 E= -153.216717220171     Delta-E=       -0.000000001288 Rises=F Damp=F
 DIIS: error= 6.05D-06 at cycle   3 NSaved=   3.
 NSaved= 3 IEnMin= 3 EnMin= -153.216717220171     IErMin= 3 ErrMin= 6.05D-06
 ErrMax= 6.05D-06  0.00D+00 EMaxC= 1.00D-01 BMatC= 5.05D-09 BMatP= 1.10D-08
 IDIUse=1 WtCom= 1.00D+00 WtEn= 0.00D+00
 Coeff-Com: -0.236D-01 0.403D+00 0.621D+00
 Coeff:     -0.236D-01 0.403D+00 0.621D+00
 Gap=     0.274 Goal=   None    Shift=    0.000
 Gap=     0.124 Goal=   None    Shift=    0.000
 RMSDP=3.39D-07 MaxDP=5.25D-06 DE=-1.29D-09 OVMax= 2.05D-05

 Cycle  12  Pass 1  IDiag  1:
 E= -153.216717221175     Delta-E=       -0.000000001004 Rises=F Damp=F
 DIIS: error= 1.35D-06 at cycle   4 NSaved=   4.
 NSaved= 4 IEnMin= 4 EnMin= -153.216717221175     IErMin= 4 ErrMin= 1.35D-06
 ErrMax= 1.35D-06  0.00D+00 EMaxC= 1.00D-01 BMatC= 2.12D-10 BMatP= 5.05D-09
 IDIUse=1 WtCom= 1.00D+00 WtEn= 0.00D+00
 Coeff-Com: -0.390D-01 0.163D+00 0.302D+00 0.574D+00
 Coeff:     -0.390D-01 0.163D+00 0.302D+00 0.574D+00
 Gap=     0.274 Goal=   None    Shift=    0.000
 Gap=     0.124 Goal=   None    Shift=    0.000
 RMSDP=8.02D-08 MaxDP=2.56D-06 DE=-1.00D-09 OVMax= 4.68D-06

 Cycle  13  Pass 1  IDiag  1:
 E= -153.216717221230     Delta-E=       -0.000000000055 Rises=F Damp=F
 DIIS: error= 5.45D-07 at cycle   5 NSaved=   5.
 NSaved= 5 IEnMin= 5 EnMin= -153.216717221230     IErMin= 5 ErrMin= 5.45D-07
 ErrMax= 5.45D-07  0.00D+00 EMaxC= 1.00D-01 BMatC= 1.71D-11 BMatP= 2.12D-10
 IDIUse=1 WtCom= 1.00D+00 WtEn= 0.00D+00
 Coeff-Com: -0.370D-02-0.508D-01-0.700D-01 0.126D+00 0.998D+00
 Coeff:     -0.370D-02-0.508D-01-0.700D-01 0.126D+00 0.998D+00
 Gap=     0.274 Goal=   None    Shift=    0.000
 Gap=     0.124 Goal=   None    Shift=    0.000
 RMSDP=4.32D-08 MaxDP=1.05D-06 DE=-5.51D-11 OVMax= 2.92D-06

 Cycle  14  Pass 1  IDiag  1:
 E= -153.216717221240     Delta-E=       -0.000000000009 Rises=F Damp=F
 DIIS: error= 1.36D-07 at cycle   6 NSaved=   6.
 NSaved= 6 IEnMin= 6 EnMin= -153.216717221240     IErMin= 6 ErrMin= 1.36D-07
 ErrMax= 1.36D-07  0.00D+00 EMaxC= 1.00D-01 BMatC= 3.92D-12 BMatP= 1.71D-11
 IDIUse=1 WtCom= 1.00D+00 WtEn= 0.00D+00
 Coeff-Com:  0.276D-02-0.372D-01-0.713D-01-0.277D-01 0.352D+00 0.781D+00
 Coeff:      0.276D-02-0.372D-01-0.713D-01-0.277D-01 0.352D+00 0.781D+00
 Gap=     0.274 Goal=   None    Shift=    0.000
 Gap=     0.124 Goal=   None    Shift=    0.000
 RMSDP=1.65D-08 MaxDP=4.66D-07 DE=-9.41D-12 OVMax= 7.40D-07

 Cycle  15  Pass 1  IDiag  1:
 E= -153.216717221241     Delta-E=       -0.000000000002 Rises=F Damp=F
 DIIS: error= 3.79D-08 at cycle   7 NSaved=   7.
 NSaved= 7 IEnMin= 7 EnMin= -153.216717221241     IErMin= 7 ErrMin= 3.79D-08
 ErrMax= 3.79D-08  0.00D+00 EMaxC= 1.00D-01 BMatC= 3.11D-13 BMatP= 3.92D-12
 IDIUse=1 WtCom= 1.00D+00 WtEn= 0.00D+00
 Coeff-Com:  0.132D-02-0.883D-02-0.207D-01-0.171D-01 0.375D-01 0.283D+00
 Coeff-Com:  0.725D+00
 Coeff:      0.132D-02-0.883D-02-0.207D-01-0.171D-01 0.375D-01 0.283D+00
 Coeff:      0.725D+00
 Gap=     0.274 Goal=   None    Shift=    0.000
 Gap=     0.124 Goal=   None    Shift=    0.000
 RMSDP=4.91D-09 MaxDP=8.43D-08 DE=-1.51D-12 OVMax= 1.92D-07

 SCF Done:  E(UB3LYP) =  -153.216717221     A.U. after   15 cycles
            NFock= 15  Conv=0.49D-08     -V/T= 2.0031
 <Sx>= 0.0000 <Sy>= 0.0000 <Sz>= 0.5000 <S**2>= 0.7666 S= 0.5083
 <L.S>= 0.000000000000E+00
 KE= 1.527399349363D+02 PE=-4.864668131316D+02 EE= 1.167310529632D+02
 Annihilation of the first spin contaminant:
 S**2 before annihilation     0.7666,   after     0.7501
 Leave Link  502 at Sat Feb 16 13:50:27 2019, MaxMem=   196608000 cpu:        76.1
 (Enter /cm/shared/c3ddb/gaussian/09.d01/g09/l508.exe)
 QCSCF skips out because SCF is already converged.
 Leave Link  508 at Sat Feb 16 13:50:27 2019, MaxMem=   196608000 cpu:         0.0
 (Enter /cm/shared/c3ddb/gaussian/09.d01/g09/l701.exe)
 Compute integral first derivatives.
 ... and contract with generalized density number  0.
 Leave Link  701 at Sat Feb 16 13:50:28 2019, MaxMem=   196608000 cpu:         3.4
 (Enter /cm/shared/c3ddb/gaussian/09.d01/g09/l702.exe)
 L702 exits ... SP integral derivatives will be done elsewhere.
 Leave Link  702 at Sat Feb 16 13:50:28 2019, MaxMem=   196608000 cpu:         0.1
 (Enter /cm/shared/c3ddb/gaussian/09.d01/g09/l703.exe)
 Compute integral first derivatives, UseDBF=F ICtDFT=           0.
 Integral derivatives from FoFJK, PRISM(SPDF).
 Calling FoFJK, ICntrl=      2127 FMM=F ISym2X=0 I1Cent= 0 IOpClX= 1 NMat=1 NMatS=1 NMatT=0.
 FoFJK:  IHMeth= 1 ICntrl=    2127 DoSepK=F KAlg= 0 I1Cent=   0 FoldK=F
 IRaf=         0 NMat=   1 IRICut=       1 DoRegI=T DoRafI=F ISym2E= 0.
 FoFCou: FMM=F IPFlag=           0 FMFlag=      100000 FMFlg1=         800
         NFxFlg=           0 DoJE=F BraDBF=F KetDBF=F FulRan=T
         wScrn=  0.000000 ICntrl=    2127 IOpCl=  1 I1Cent=           0 NGrid=           0
         NMat0=    1 NMatS0=      1 NMatT0=    0 NMatD0=    1 NMtDS0=    0 NMtDT0=    0
 Symmetry not used in FoFCou.
 Leave Link  703 at Sat Feb 16 13:50:29 2019, MaxMem=   196608000 cpu:         8.4
 (Enter /cm/shared/c3ddb/gaussian/09.d01/g09/l716.exe)
 Dipole        =-1.04135462D+00 3.41842874D-01-7.86028861D-08
 ***** Axes restored to original set *****
 -------------------------------------------------------------------
 Center     Atomic                   Forces (Hartrees/Bohr)
 Number     Number              X              Y              Z
 -------------------------------------------------------------------
      1        8          -0.013221508   -0.003180273    0.002586986
      2        6           0.000068105   -0.000145894   -0.000125110
      3        6           0.012830673    0.003434216   -0.002270851
      4        1           0.000046679    0.000010526   -0.000009616
      5        1          -0.000037478    0.000031475    0.000035231
      6        1           0.000313530   -0.000150050   -0.000216639
 -------------------------------------------------------------------
 Cartesian Forces:  Max     0.013221508 RMS     0.004554650
 Leave Link  716 at Sat Feb 16 13:50:29 2019, MaxMem=   196608000 cpu:         0.2
 (Enter /cm/shared/c3ddb/gaussian/09.d01/g09/l103.exe)

 GradGradGradGradGradGradGradGradGradGradGradGradGradGradGradGradGradGrad
 Berny optimization.
 Using GEDIIS/GDIIS optimizer.
 FormGI is forming the generalized inverse of G from B-inverse, IUseBI=4.
 Internal  Forces:  Max     0.013841615 RMS     0.003576025
 Search for a local minimum.
 Step number   2 out of a maximum of   25
 All quantities printed in internal units (Hartrees-Bohrs-Radians)
 RMS Force = .35760D-02 SwitMx=.10000D-02 MixMth= 1
 Mixed Optimization -- RFO/linear search
 Update second derivatives using D2CorX and points    1    2
 DE= -2.31D-03 DEPred=-2.84D-03 R= 8.15D-01
 TightC=F SS=  1.41D+00  RLast= 1.17D-01 DXNew= 5.0454D-01 3.5098D-01
 Trust test= 8.15D-01 RLast= 1.17D-01 DXMaxT set to 3.51D-01
 The second derivative matrix:
                          R1        R2        R3        R4        R5
           R1           0.58520
           R2           0.12227   0.32517
           R3           0.00320  -0.00082   0.34294
           R4           0.00197   0.00100  -0.00109   0.34497
           R5           0.03644   0.00433   0.00036  -0.00076   0.30304
           A1           0.00718   0.00682   0.00497  -0.00975  -0.00071
           A2          -0.00453   0.00661  -0.01014   0.00565   0.00242
           A3          -0.00265  -0.01344   0.00516   0.00410  -0.00170
           A4           0.03096   0.00580   0.00675  -0.00665  -0.01189
           A5           0.01275  -0.01981  -0.00363   0.00055   0.00049
           A6          -0.04372   0.01400  -0.00312   0.00610   0.01141
           D1           0.00000   0.00000   0.00000   0.00000   0.00000
           D2           0.00000   0.00000   0.00000   0.00000   0.00000
           D3           0.00000   0.00000   0.00000   0.00000   0.00000
           D4           0.00000   0.00000   0.00000   0.00000   0.00000
                          A1        A2        A3        A4        A5
           A1           0.07302
           A2          -0.03820   0.06949
           A3          -0.03483  -0.03129   0.06612
           A4           0.01839  -0.01883   0.00044   0.13510
           A5          -0.00451   0.00232   0.00219  -0.07478   0.11176
           A6          -0.01388   0.01651  -0.00263  -0.06032  -0.03698
           D1           0.00000   0.00000   0.00000   0.00000   0.00000
           D2           0.00000   0.00000   0.00000   0.00000   0.00000
           D3           0.00000   0.00000   0.00000   0.00000   0.00000
           D4           0.00000   0.00000   0.00000   0.00000   0.00000
                          A6        D1        D2        D3        D4
           A6           0.09729
           D1           0.00000   0.02316
           D2           0.00000  -0.00649   0.02438
           D3           0.00000   0.01120  -0.01901   0.02622
           D4           0.00000  -0.01845   0.01186  -0.00400   0.02631
 ITU=  1  0
 Use linear search instead of GDIIS.
     Eigenvalues ---    0.01214   0.02738   0.06054   0.09085   0.09953
     Eigenvalues ---    0.13326   0.20672   0.28575   0.30514   0.34294
     Eigenvalues ---    0.34768   0.64224
 RFO step:  Lambda=-2.38455001D-05 EMin= 1.21399066D-02
 Quartic linear search produced a step of -0.18042.
 Iteration  1 RMS(Cart)=  0.00486286 RMS(Int)=  0.00000559
 Iteration  2 RMS(Cart)=  0.00000678 RMS(Int)=  0.00000000
 Iteration  3 RMS(Cart)=  0.00000000 RMS(Int)=  0.00000000
 ITry= 1 IFail=0 DXMaxC= 1.25D-02 DCOld= 1.00D+10 DXMaxT= 3.51D-01 DXLimC= 3.00D+00 Rises=F
 Variable       Old X    -DE/DX   Delta X   Delta X   Delta X     New X
                                 (Linear)    (Quad)   (Total)
    R1        2.30731   0.01384   0.02025   0.00202   0.02228   2.32959
    R2        2.70004  -0.00009  -0.00184  -0.00637  -0.00821   2.69182
    R3        2.04792   0.00005   0.00275  -0.00369  -0.00094   2.04698
    R4        2.04775   0.00006   0.00264  -0.00348  -0.00084   2.04691
    R5        2.09329   0.00039   0.00028  -0.00189  -0.00161   2.09168
    A1        2.11815   0.00001  -0.00068   0.00132   0.00064   2.11879
    A2        2.07780  -0.00002   0.00173  -0.00329  -0.00156   2.07625
    A3        2.08723   0.00001  -0.00105   0.00197   0.00092   2.08815
    A4        2.15085   0.00013  -0.00092  -0.00162  -0.00254   2.14831
    A5        2.10358   0.00007  -0.00193   0.00013  -0.00180   2.10177
    A6        2.02876  -0.00020   0.00285   0.00149   0.00434   2.03311
    D1        3.14159   0.00000   0.00000   0.00000   0.00000  -3.14159
    D2        0.00000   0.00000   0.00000   0.00000   0.00000   0.00000
    D3        0.00000   0.00000   0.00000   0.00000   0.00000   0.00000
    D4        3.14159   0.00000   0.00000   0.00000   0.00000  -3.14159
         Item               Value     Threshold  Converged?
 Maximum Force            0.013842     0.000450     NO 
 RMS     Force            0.003576     0.000300     NO 
 Maximum Displacement     0.012548     0.001800     NO 
 RMS     Displacement     0.004865     0.001200     NO 
 Predicted change in Energy=-1.788024D-04
 Lowest energy point so far.  Saving SCF results.
 GradGradGradGradGradGradGradGradGradGradGradGradGradGradGradGradGradGrad

 Leave Link  103 at Sat Feb 16 13:50:31 2019, MaxMem=   196608000 cpu:        12.4
 (Enter /cm/shared/c3ddb/gaussian/09.d01/g09/l202.exe)
                          Input orientation:                          
 ---------------------------------------------------------------------
 Center     Atomic      Atomic             Coordinates (Angstroms)
 Number     Number       Type             X           Y           Z
 ---------------------------------------------------------------------
      1          8           0        0.986356   -0.154077    0.260540
      2          6           0        2.815422    1.267042    0.578457
      3          6           0        2.164114    0.126084    0.027935
      4          1           0        3.852308    1.487275    0.355478
      5          1           0        2.256889    1.924714    1.233270
      6          1           0        2.772901   -0.517689   -0.635462
 ---------------------------------------------------------------------
                    Distance matrix (angstroms):
                    1          2          3          4          5
[...]
 Coeff:      0.178D-01 0.149D-01-0.842D-01 0.835D-02 0.722D+00-0.178D+01
 Coeff:      0.211D+01
 Gap=     0.464 Goal=   None    Shift=    0.000
 Gap=     0.483 Goal=   None    Shift=    0.000
 RMSDP=1.64D-08 MaxDP=6.82D-07 DE=-1.12D-11 OVMax= 3.24D-06

 Cycle  14  Pass 1  IDiag  1:
 E= -152.353984817645     Delta-E=       -0.000000000003 Rises=F Damp=F
 DIIS: error= 3.73D-08 at cycle  14 NSaved=  14.
 NSaved=14 IEnMin=14 EnMin= -152.353984817645     IErMin=14 ErrMin= 3.73D-08
 ErrMax= 3.73D-08  0.00D+00 EMaxC= 1.00D-01 BMatC= 1.39D-13 BMatP= 1.12D-12
 IDIUse=1 WtCom= 1.00D+00 WtEn= 0.00D+00
 Coeff-Com:  0.108D-06-0.172D-05-0.757D-05-0.163D-05 0.148D-03 0.246D-03
 Coeff-Com: -0.248D-02 0.307D-02 0.957D-02-0.550D-01-0.505D-02 0.321D+00
 Coeff-Com: -0.891D+00 0.162D+01
 Coeff:      0.108D-06-0.172D-05-0.757D-05-0.163D-05 0.148D-03 0.246D-03
 Coeff:     -0.248D-02 0.307D-02 0.957D-02-0.550D-01-0.505D-02 0.321D+00
 Coeff:     -0.891D+00 0.162D+01
 Gap=     0.464 Goal=   None    Shift=    0.000
 Gap=     0.483 Goal=   None    Shift=    0.000
 RMSDP=5.29D-09 MaxDP=1.95D-07 DE=-3.21D-12 OVMax= 1.03D-06

 SCF Done:  E(UHF) =  -152.353984818     A.U. after   14 cycles
            NFock= 14  Conv=0.53D-08     -V/T= 2.0009
 <Sx>= 0.0000 <Sy>= 0.0000 <Sz>= 0.5000 <S**2>= 0.9223 S= 0.5827
 <L.S>= 0.000000000000E+00
 KE= 1.522238083071D+02 PE=-4.851662628064D+02 EE= 1.169870804707D+02
 Annihilation of the first spin contaminant:
 S**2 before annihilation     0.9223,   after     0.7548
 Leave Link  502 at Sat Feb 16 14:11:38 2019, MaxMem=   196608000 cpu:        91.2
 (Enter /cm/shared/c3ddb/gaussian/09.d01/g09/l508.exe)
 QCSCF skips out because SCF is already converged.
 Leave Link  508 at Sat Feb 16 14:11:39 2019, MaxMem=   196608000 cpu:         0.0
 (Enter /cm/shared/c3ddb/gaussian/09.d01/g09/l801.exe)
 ExpMin= 3.60D-02 ExpMax= 8.59D+03 ExpMxC= 1.30D+03 IAcc=3 IRadAn=         5 AccDes= 0.00D+00
 HarFok:  IExCor=  205 AccDes= 0.00D+00 IRadAn=         5 IDoV=-2 UseB2=F ITyADJ=14
 ICtDFT= 12500011 ScaDFX=  1.000000  1.000000  1.000000  1.000000
 Largest valence mixing into a core orbital is  1.38D-04
 Largest core mixing into a valence orbital is  3.39D-05
 Largest valence mixing into a core orbital is  1.49D-04
 Largest core mixing into a valence orbital is  4.15D-05
 Range of M.O.s used for correlation:     4   132
 NBasis=   132 NAE=    12 NBE=    11 NFC=     3 NFV=     0
 NROrb=    129 NOA=     9 NOB=     8 NVA=   120 NVB=   121

 **** Warning!!: The largest alpha MO coefficient is  0.32914072D+02


 **** Warning!!: The largest beta MO coefficient is  0.33207302D+02

 Leave Link  801 at Sat Feb 16 14:11:39 2019, MaxMem=   196608000 cpu:         3.7
 (Enter /cm/shared/c3ddb/gaussian/09.d01/g09/l906.exe)
 FulOut=F Deriv=F AODrv=F NAtomX=     6
   MMem=           0  MDisk=           9 MDiskD=           9
  W3Min=      320166 MinDsk=      365519 NBas6D=         147
 NBas2D=       11193    NTT=       10878    LW2=     2000000
    MDV=   196477948 MDiskM=        6614 NBas2p=       11159
 Disk-based method using OVN memory for  9 occupieds at a time.
 Permanent disk used for amplitudes and <ij||ab> integrals=     3011520 words.
 Estimated scratch disk usage=    40445271 words.
 IMap=   1   2   3   4   5   6   7   8   9
 Actual    scratch disk usage=    30913800 words.
 JobTyp=2 Pass  1:  I=   1 to   9 NPSUse=  8 ParTrn=T ParDer=T DoDerP=F.
 (rs|ai) integrals will be sorted in core.
 IMap=   1   2   3   4   5   6   7   8
 Actual    scratch disk usage=    31134551 words.
 JobTyp=3 Pass  1:  I=   1 to   8 NPSUse=  8 ParTrn=T ParDer=T DoDerP=F.
 (rs|ai) integrals will be sorted in core.
 Spin components of T(2) and E(2):
     alpha-alpha T2 =       0.1939345049D-01 E2=     -0.6774604344D-01
     alpha-beta  T2 =       0.1052444997D+00 E2=     -0.3804773465D+00
     beta-beta   T2 =       0.1747325782D-01 E2=     -0.5583260961D-01
 The integrals were generated   2 times.
 (S**2,0)=  0.92228D+00           (S**2,1)=  0.86480D+00
 E(PUHF)=      -0.15237064104D+03        E(PMP2)=      -0.15287196316D+03
 ANorm=    0.1068696032D+01
 E2 =    -0.5040559996D+00 EUMP2 =    -0.15285804081722D+03
 Leave Link  906 at Sat Feb 16 14:12:16 2019, MaxMem=   196608000 cpu:       263.3
 (Enter /cm/shared/c3ddb/gaussian/09.d01/g09/l904.exe)

 Complete Basis Set (CBS) Extrapolation:
 M. R. Nyden and G. A. Petersson, JCP 75, 1843 (1981)
 G. A. Petersson and M. A. Al-Laham, JCP 94, 6081 (1991)
 G. A. Petersson, T. Tensfeldt, and J. A. Montgomery, JCP 94, 6091 (1991)
 J. A. Montgomery, J. W. Ochterski, and G. A. Petersson, JCP 101, 5900 (1994)
 
 Available Memory in CBS =  196608000
 Minimum Number of PNO for Extrapolation =  10
 Absolute Overlaps: IRadAn =     99590
 LocTrn: ILocal=3 LocCor=F DoCore=F.
 LocMO: Using population method
 Initial Trace= 0.80000000D+01 Initial TraceA= 0.31233763D+01
 RMSG= 0.63207165D-09
 LocMO: Using population method
 Initial Trace= 0.80000000D+01 Initial TraceA= 0.30588747D+01
 RMSG= 0.34477753D-08
 <Sx>= 0.0000 <Sy>= 0.0000 <Sz>= 0.5000 <S**2>= 0.9223 S= 0.5827 S2Cor= 0.1616
 There are a total of      300900 grid points.
 ElSum from         orbitals=       23.0000000199
 E2(CBS)=      -0.556556 CBS-Int=       0.016318 OIii=       4.397162
 Leave Link  904 at Sat Feb 16 14:12:22 2019, MaxMem=   196608000 cpu:        37.5
 (Enter /cm/shared/c3ddb/gaussian/09.d01/g09/l601.exe)
 Copying SCF densities to generalized density rwf, IOpCl= 1 IROHF=0.

 **********************************************************************

            Population analysis using the SCF density.

 **********************************************************************

 Orbital symmetries:
 Alpha Orbitals:
       Occupied  (A) (A) (A) (A) (A) (A) (A) (A) (A) (A) (A) (A)
       Virtual   (A) (A) (A) (A) (A) (A) (A) (A) (A) (A) (A) (A)
                 (A) (A) (A) (A) (A) (A) (A) (A) (A) (A) (A) (A)
                 (A) (A) (A) (A) (A) (A) (A) (A) (A) (A) (A) (A)
                 (A) (A) (A) (A) (A) (A) (A) (A) (A) (A) (A) (A)
                 (A) (A) (A) (A) (A) (A) (A) (A) (A) (A) (A) (A)
                 (A) (A) (A) (A) (A) (A) (A) (A) (A) (A) (A) (A)
                 (A) (A) (A) (A) (A) (A) (A) (A) (A) (A) (A) (A)
                 (A) (A) (A) (A) (A) (A) (A) (A) (A) (A) (A) (A)
                 (A) (A) (A) (A) (A) (A) (A) (A) (A) (A) (A) (A)
                 (A) (A) (A) (A) (A) (A) (A) (A) (A) (A) (A) (A)
 Beta  Orbitals:
       Occupied  (A) (A) (A) (A) (A) (A) (A) (A) (A) (A) (A)
       Virtual   (A) (A) (A) (A) (A) (A) (A) (A) (A) (A) (A) (A)
                 (A) (A) (A) (A) (A) (A) (A) (A) (A) (A) (A) (A)
                 (A) (A) (A) (A) (A) (A) (A) (A) (A) (A) (A) (A)
                 (A) (A) (A) (A) (A) (A) (A) (A) (A) (A) (A) (A)
                 (A) (A) (A) (A) (A) (A) (A) (A) (A) (A) (A) (A)
                 (A) (A) (A) (A) (A) (A) (A) (A) (A) (A) (A) (A)
                 (A) (A) (A) (A) (A) (A) (A) (A) (A) (A) (A) (A)
                 (A) (A) (A) (A) (A) (A) (A) (A) (A) (A) (A) (A)
                 (A) (A) (A) (A) (A) (A) (A) (A) (A) (A) (A) (A)
                 (A) (A) (A) (A) (A) (A) (A) (A) (A) (A) (A) (A)
                 (A)
 The electronic state is 2-A.
 Alpha  occ. eigenvalues --  -20.59387 -11.30867 -11.27035  -1.42661  -1.03816
 Alpha  occ. eigenvalues --   -0.79984  -0.69527  -0.65147  -0.62444  -0.58624
 Alpha  occ. eigenvalues --   -0.46486  -0.42163
 Alpha virt. eigenvalues --    0.04218   0.05735   0.06684   0.10906   0.11888
 Alpha virt. eigenvalues --    0.12051   0.13550   0.16512   0.17657   0.19740
 Alpha virt. eigenvalues --    0.20788   0.20801   0.25104   0.28649   0.30020
 Alpha virt. eigenvalues --    0.31645   0.37515   0.38784   0.42166   0.48810
 Alpha virt. eigenvalues --    0.52160   0.60166   0.63947   0.65199   0.68065
 Alpha virt. eigenvalues --    0.68397   0.71971   0.74944   0.75985   0.80114
 Alpha virt. eigenvalues --    0.80740   0.82779   0.89144   0.93969   0.95527
 Alpha virt. eigenvalues --    1.05071   1.06081   1.14942   1.16668   1.22607
 Alpha virt. eigenvalues --    1.24118   1.26684   1.28874   1.32862   1.33086
 Alpha virt. eigenvalues --    1.41262   1.48134   1.54158   1.56045   1.63221
 Alpha virt. eigenvalues --    1.65183   1.72999   1.78419   1.85491   1.94228
 Alpha virt. eigenvalues --    1.94537   2.24101   2.26268   2.56400   2.67962
 Alpha virt. eigenvalues --    2.73751   2.87146   2.91288   2.99496   3.04298
 Alpha virt. eigenvalues --    3.05094   3.07859   3.12474   3.25113   3.25184
 Alpha virt. eigenvalues --    3.31199   3.40584   3.40862   3.43158   3.43366
 Alpha virt. eigenvalues --    3.48371   3.54790   3.62997   3.66327   3.69234
 Alpha virt. eigenvalues --    3.74591   3.80867   3.86217   3.92796   3.98787
 Alpha virt. eigenvalues --    4.00751   4.04403   4.24486   4.34553   4.38317
 Alpha virt. eigenvalues --    4.40656   4.53018   4.59180   4.60382   4.69582
 Alpha virt. eigenvalues --    4.74659   4.85589   5.20160   5.37996   5.48333
 Alpha virt. eigenvalues --    5.48569   5.54569   5.58402   5.75505   5.84343
 Alpha virt. eigenvalues --    5.88543   5.94175   6.10620   6.27583   6.63786
 Alpha virt. eigenvalues --    7.09514   7.31894   7.38048   7.52739   7.69771
 Alpha virt. eigenvalues --    7.94245   8.13392  25.30810  25.84053  51.80180
  Beta  occ. eigenvalues --  -20.56806 -11.32098 -11.25047  -1.36525  -0.97806
  Beta  occ. eigenvalues --   -0.78846  -0.68236  -0.63255  -0.57519  -0.48559
  Beta  occ. eigenvalues --   -0.43992
  Beta virt. eigenvalues --    0.04288   0.04306   0.05760   0.06711   0.11889
  Beta virt. eigenvalues --    0.12610   0.13572   0.13645   0.16846   0.17726
  Beta virt. eigenvalues --    0.19910   0.21008   0.24105   0.25879   0.28912
  Beta virt. eigenvalues --    0.30117   0.36161   0.37685   0.38862   0.42399
  Beta virt. eigenvalues --    0.48593   0.52454   0.61600   0.64758   0.66472
  Beta virt. eigenvalues --    0.69004   0.72209   0.72485   0.77493   0.77532
  Beta virt. eigenvalues --    0.80552   0.81755   0.83574   0.89153   0.94380
  Beta virt. eigenvalues --    0.97071   1.05988   1.06497   1.15673   1.17615
  Beta virt. eigenvalues --    1.22847   1.24509   1.29086   1.30914   1.33320
  Beta virt. eigenvalues --    1.37451   1.42284   1.50996   1.54887   1.56627
  Beta virt. eigenvalues --    1.63605   1.65715   1.73558   1.80130   1.86620
  Beta virt. eigenvalues --    1.97132   1.97850   2.25252   2.29479   2.56740
  Beta virt. eigenvalues --    2.68858   2.74278   2.87433   2.92516   3.00901
  Beta virt. eigenvalues --    3.05021   3.05879   3.11889   3.12918   3.25098
  Beta virt. eigenvalues --    3.27397   3.31347   3.41045   3.42659   3.44647
  Beta virt. eigenvalues --    3.44720   3.48608   3.55784   3.63149   3.66648
  Beta virt. eigenvalues --    3.69757   3.74855   3.81250   3.88422   3.93552
  Beta virt. eigenvalues --    4.00581   4.00815   4.04712   4.24330   4.34367
  Beta virt. eigenvalues --    4.38702   4.40835   4.53566   4.59448   4.61004
  Beta virt. eigenvalues --    4.70719   4.75203   4.85930   5.20501   5.38668
  Beta virt. eigenvalues --    5.51142   5.51906   5.59063   5.61965   5.76944
  Beta virt. eigenvalues --    5.87100   5.90687   5.94802   6.11463   6.27924
  Beta virt. eigenvalues --    6.66700   7.10133   7.37971   7.43595   7.53656
  Beta virt. eigenvalues --    7.74933   7.95407   8.15616  25.31774  25.83614
  Beta virt. eigenvalues --   51.81670
          Condensed to atoms (all electrons):
               1          2          3          4          5          6
     1  O    8.100722  -0.136070   0.332170   0.002651   0.009232  -0.037246
     2  C   -0.136070   4.951892   0.453689   0.409617   0.418610  -0.070040
     3  C    0.332170   0.453689   4.832805  -0.012173  -0.047955   0.416041
     4  H    0.002651   0.409617  -0.012173   0.549032  -0.023865  -0.000018
     5  H    0.009232   0.418610  -0.047955  -0.023865   0.531746   0.004105
     6  H   -0.037246  -0.070040   0.416041  -0.000018   0.004105   0.596306
          Atomic-Atomic Spin Densities.
               1          2          3          4          5          6
     1  O    0.659109  -0.038240  -0.031685  -0.002003   0.002233   0.003663
     2  C   -0.038240   0.997649   0.039949   0.017899   0.005389  -0.000789
     3  C   -0.031685   0.039949  -0.508064  -0.008003  -0.003996  -0.005962
     4  H   -0.002003   0.017899  -0.008003  -0.073287   0.004904  -0.001742
     5  H    0.002233   0.005389  -0.003996   0.004904  -0.071752   0.000618
     6  H    0.003663  -0.000789  -0.005962  -0.001742   0.000618   0.031876
 Mulliken charges and spin densities:
               1          2
     1  O   -0.271460   0.593077
     2  C   -0.027698   1.021856
     3  C    0.025423  -0.517761
     4  H    0.074756  -0.062232
     5  H    0.108127  -0.062604
     6  H    0.090852   0.027665
 Sum of Mulliken charges =   0.00000   1.00000
 Mulliken charges and spin densities with hydrogens summed into heavy atoms:
               1          2
     1  O   -0.271460   0.593077
     2  C    0.155185   0.897020
     3  C    0.116275  -0.490097
 Electronic spatial extent (au):  <R**2>=            150.6710
 Charge=              0.0000 electrons
 Dipole moment (field-independent basis, Debye):
    X=             -2.6702    Y=              1.0166    Z=              0.0000  Tot=              2.8572
 Quadrupole moment (field-independent basis, Debye-Ang):
   XX=            -19.2172   YY=            -16.6372   ZZ=            -18.6135
   XY=              1.0025   XZ=              0.0000   YZ=              0.0000
 Traceless Quadrupole moment (field-independent basis, Debye-Ang):
   XX=             -1.0612   YY=              1.5187   ZZ=             -0.4575
   XY=              1.0025   XZ=              0.0000   YZ=              0.0000
 Octapole moment (field-independent basis, Debye-Ang**2):
  XXX=             -3.5461  YYY=             -0.2562  ZZZ=              0.0000  XYY=             -0.0828
  XXY=              0.8470  XXZ=              0.0000  XZZ=              2.5825  YZZ=             -0.3045
  YYZ=              0.0000  XYZ=              0.0000
 Hexadecapole moment (field-independent basis, Debye-Ang**3):
 XXXX=           -129.6947 YYYY=            -38.8859 ZZZZ=            -19.0799 XXXY=             -3.1646
 XXXZ=              0.0000 YYYX=              1.7981 YYYZ=              0.0000 ZZZX=              0.0000
 ZZZY=              0.0000 XXYY=            -27.7267 XXZZ=            -26.1614 YYZZ=            -10.8314
 XXYZ=              0.0000 YYXZ=              0.0000 ZZXY=             -0.4890
 N-N= 6.360138921100D+01 E-N=-4.851662626373D+02  KE= 1.522238083071D+02
 Leave Link  601 at Sat Feb 16 14:12:23 2019, MaxMem=   196608000 cpu:         1.3
 (Enter /cm/shared/c3ddb/gaussian/09.d01/g09/l9999.exe)
 1\1\GINC-NODE028\SP\UMP2-FC\CBSB3\C2H3O1(2)\DUMINDA\16-Feb-2019\0\\#P 
 Geom=AllCheck Guess=TCheck SCRF=Check MP2/CBSB3 CBSExtrap=(NMin=10,Min
 Pop)\\name\\0,2\O,0,0.9863560947,-0.1540769733,0.2605402735\C,0,2.8154
 223563,1.2670415306,0.5784571338\C,0,2.1641143724,0.1260835356,0.02793
 49833\H,0,3.8523082916,1.4872751558,0.3554783404\H,0,2.2568891931,1.92
 47137133,1.2332700303\H,0,2.7729006919,-0.5176889621,-0.6354617612\\Ve
 rsion=AS64L-G09RevD.01\State=2-A\HF=-152.3539848\MP2=-152.8580408\E2(C
 BS)=-0.556556\CBS-Int=-0.5402379\OIii=4.3971624\PUHF=-152.370641\PMP2-
 0=-152.8719632\S2=0.922285\S2-1=0.864797\S2A=0.754761\RMSD=5.293e-09\P
 G=C01 [X(C2H3O1)]\\@


 FORGIVE MY NONSENSE AS I ALSO FORGIVE THOSE WHO THINK THEY TALK SENSE

                                                       -- ROBERT FROST
 Diagonal vibrational polarizability:
        0.0000000       0.0000000       0.0000000

 Complete Basis Set (CBS) Extrapolation:
 M. R. Nyden and G. A. Petersson, JCP 75, 1843 (1981)
 G. A. Petersson and M. A. Al-Laham, JCP 94, 6081 (1991)
 G. A. Petersson, T. Tensfeldt, and J. A. Montgomery, JCP 94, 6091 (1991)
 J. A. Montgomery, J. W. Ochterski, and G. A. Petersson, JCP 101, 5900 (1994)

 Temperature=               298.150000 Pressure=                       1.000000
 E(ZPE)=                      0.041858 E(Thermal)=                     0.045402
 E(SCF)=                   -152.353985 DE(MP2)=                       -0.504056
 DE(CBS)=                    -0.052500 DE(MP34)=                      -0.033344
 DE(CCSD)=                   -0.020033 DE(Int)=                        0.016318
 DE(Empirical)=              -0.027103
 CBS-QB3 (0 K)=            -152.932845 CBS-QB3 Energy=              -152.929300
 CBS-QB3 Enthalpy=         -152.928356 CBS-QB3 Free Energy=         -152.957767
 1\1\GINC-NODE028\Mixed\CBS-QB3\CBS-QB3\C2H3O1(2)\DUMINDA\16-Feb-2019\0
 \\#P opt=(noeigentest, calcfc) cbs-qb3 scf=xqc\\name\\0,2\O,0,0.986356
 0947,-0.1540769733,0.2605402735\C,0,2.8154223563,1.2670415306,0.578457
 1338\C,0,2.1641143724,0.1260835356,0.0279349833\H,0,3.8523082916,1.487
 2751558,0.3554783404\H,0,2.2568891931,1.9247137133,1.2332700303\H,0,2.
 7729006919,-0.5176889621,-0.6354617612\\Version=AS64L-G09RevD.01\State
 =2-A\HF/CbsB3=-152.3539848\E2(CBS)/CbsB3=-0.556556\CBS-Int/CbsB3=0.016
 3181\OIii/CbsB3=4.3971624\MP2/CbsB4=-152.7289503\MP4(SDQ)/CbsB4=-152.7
 622941\MP4(SDQ)/6-31+G(d')=-152.7378965\QCISD(T)/6-31+G(d')=-152.75792
 91\CBSQB3=-152.9328446\FreqCoord=1.8639428885,-0.291163283,0.492349763
 4,5.3203772017,2.3943614919,1.0931255625,4.089583484,0.2382633522,0.05
 27894679,7.2798076507,2.8105427288,0.6717567095,4.2649024873,3.6371818
 023,2.3305426052,5.2400229013,-0.9782903603,-1.2008486967\PG=C01 [X(C2
 H3O1)]\NImag=0\\0.61127008,0.14351125,0.09509521,-0.11469452,-0.000340
 24,0.06151092,-0.07523321,-0.05704848,-0.00581159,0.60001265,-0.084402
 27,-0.01248376,0.00989599,0.06322678,0.43351305,-0.02465227,0.00001190
 ,0.02634346,-0.14545510,0.22274564,0.28293306,-0.49283472,-0.09795176,
 0.09233118,-0.08372942,0.00639828,0.01209588,0.67018617,-0.05681837,-0
 .10019578,-0.01362994,-0.04604233,-0.19974410,-0.07792774,0.04033755,0
 .44856308,0.12066297,0.00123329,-0.09335073,-0.02402403,-0.09687671,-0
 .12049639,-0.16012358,0.19095749,0.33954750,-0.00130456,-0.00432469,-0
 .00175953,-0.31881720,-0.06158636,0.06517950,-0.00552840,0.00486302,0.
 00793672,0.33161782,-0.00415894,-0.00484866,-0.00326234,-0.05779610,-0
 .05963196,-0.00569577,-0.02203628,0.00673333,0.00766435,0.06664279,0.0
 5082243,-0.00164537,-0.00320244,0.00045835,0.06779013,-0.00432619,-0.0
 4851723,-0.01059095,-0.00205552,0.00957758,-0.07018721,0.00379872,0.03
 832369,0.00074842,0.00239251,-0.00011904,-0.13250667,0.08742035,0.0990
 5592,0.01087261,-0.00956437,-0.00773698,-0.00613550,0.01569270,0.01471
 330,0.12755566,0.00020915,0.00229192,0.00435567,0.08468615,-0.15237526
 ,-0.11832623,0.01672971,-0.00955086,-0.01792176,-0.00548328,0.00772996
 ,0.00408896,-0.09290848,0.15400611,-0.00162292,0.00356673,-0.00109845,
 0.09717266,-0.11931424,-0.14230532,0.01037386,-0.00842056,-0.00185631,
 0.00012773,-0.00356282,0.00216987,-0.10539203,0.13070291,0.14109499,-0
 .04264601,0.01342116,0.03005351,0.01027385,-0.01105677,-0.00622393,-0.
 09896625,0.06722451,0.06328490,0.00016783,0.00165583,-0.00007991,-0.00
 053452,-0.00323326,-0.00065929,0.13170511,0.00165918,0.02014108,0.0029
 8085,0.01297398,-0.00927796,-0.02080780,0.05652250,-0.14580567,-0.0850
 5665,-0.00011148,-0.00080509,0.00169647,-0.00303271,-0.00210186,-0.002
 97201,-0.06801147,0.13784951,0.02195210,-0.00126924,0.00613646,0.01032
 792,-0.01212448,0.00204243,0.05591361,-0.08892374,-0.13342165,-0.00129
 720,0.00105786,-0.00201225,-0.00052116,-0.00289955,0.00199522,-0.08637
 527,0.10415914,0.12525980\\-0.00036125,-0.00003324,0.00010763,0.000502
 96,0.00036601,0.00007033,-0.00006195,-0.00010624,-0.00005078,-0.000338
 82,-0.00008617,0.00006308,0.00005418,-0.00028437,-0.00021542,0.0002048
 8,0.00014401,0.00002517\\\@
 Job cpu time:       0 days  0 hours  6 minutes 58.2 seconds.
 File lengths (MBytes):  RWF=    268 Int=      0 D2E=      0 Chk=      3 Scr=      1
 Normal termination of Gaussian 09 at Sat Feb 16 14:12:23 2019.
