 Entering Gaussian System, Link 0=g09
 Initial command:
 /cm/shared/c3ddb/gaussian/09.d01/g09/l1.exe "/scratch/users/duminda/g09/a1698-7322612/Gau-50968.inp" -scrdir="/scratch/users/duminda/g09/a1698-7322612/"
 Entering Link 1 = /cm/shared/c3ddb/gaussian/09.d01/g09/l1.exe PID=     50969.
  
 Copyright (c) 1988,1990,1992,1993,1995,1998,2003,2009,2013,
            Gaussian, Inc.  All Rights Reserved.
  
 This is part of the Gaussian(R) 09 program.  It is based on
 the Gaussian(R) 03 system (copyright 2003, Gaussian, Inc.),
 the Gaussian(R) 98 system (copyright 1998, Gaussian, Inc.),
 the Gaussian(R) 94 system (copyright 1995, Gaussian, Inc.),
 the Gaussian 92(TM) system (copyright 1992, Gaussian, Inc.),
 the Gaussian 90(TM) system (copyright 1990, Gaussian, Inc.),
 the Gaussian 88(TM) system (copyright 1988, Gaussian, Inc.),
 the Gaussian 86(TM) system (copyright 1986, Carnegie Mellon
 University), and the Gaussian 82(TM) system (copyright 1983,
 Carnegie Mellon University). Gaussian is a federally registered
 trademark of Gaussian, Inc.
  
 This software contains proprietary and confidential information,
 including trade secrets, belonging to Gaussian, Inc.
  
 This software is provided under written license and may be
 used, copied, transmitted, or stored only in accord with that
 written license.
  
 The following legend is applicable only to US Government
 contracts under FAR:
  
                    RESTRICTED RIGHTS LEGEND
  
 Use, reproduction and disclosure by the US Government is
 subject to restrictions as set forth in subparagraphs (a)
 and (c) of the Commercial Computer Software - Restricted
 Rights clause in FAR 52.227-19.
  
 Gaussian, Inc.
 340 Quinnipiac St., Bldg. 40, Wallingford CT 06492
  
  
 ---------------------------------------------------------------
 Warning -- This program may not be used in any manner that
 competes with the business of Gaussian, Inc. or will provide
 assistance to any competitor of Gaussian, Inc.  The licensee
 of this program is prohibited from giving any competitor of
 Gaussian, Inc. access to this program.  By using this program,
 the user acknowledges that Gaussian, Inc. is engaged in the
 business of creating and licensing software in the field of
 computational chemistry and represents and warrants to the
 licensee that it is not a competitor of Gaussian, Inc. and that
 it will not use this program in any manner prohibited above.
 ---------------------------------------------------------------
  

 Cite this work as:
 Gaussian 09, Revision D.01,
 M. J. Frisch, G. W. Trucks, H. B. Schlegel, G. E. Scuseria, 
 M. A. Robb, J. R. Cheeseman, G. Scalmani, V. Barone, B. Mennucci, 
 G. A. Petersson, H. Nakatsuji, M. Caricato, X. Li, H. P. Hratchian, 
 A. F. Izmaylov, J. Bloino, G. Zheng, J. L. Sonnenberg, M. Hada, 
 M. Ehara, K. Toyota, R. Fukuda, J. Hasegawa, M. Ishida, T. Nakajima, 
 Y. Honda, O. Kitao, H. Nakai, T. Vreven, J. A. Montgomery, Jr., 
 J. E. Peralta, F. Ogliaro, M. Bearpark, J. J. Heyd, E. Brothers, 
 K. N. Kudin, V. N. Staroverov, T. Keith, R. Kobayashi, J. Normand, 
 K. Raghavachari, A. Rendell, J. C. Burant, S. S. Iyengar, J. Tomasi, 
 M. Cossi, N. Rega, J. M. Millam, M. Klene, J. E. Knox, J. B. Cross, 
 V. Bakken, C. Adamo, J. Jaramillo, R. Gomperts, R. E. Stratmann, 
 O. Yazyev, A. J. Austin, R. Cammi, C. Pomelli, J. W. Ochterski, 
 R. L. Martin, K. Morokuma, V. G. Zakrzewski, G. A. Voth, 
 P. Salvador, J. J. Dannenberg, S. Dapprich, A. D. Daniels, 
 O. Farkas, J. B. Foresman, J. V. Ortiz, J. Cioslowski, 
 and D. J. Fox, Gaussian, Inc., Wallingford CT, 2013.
 
 ******************************************
 Gaussian 09:  AS64L-G09RevD.01 24-Apr-2013
                16-Feb-2019 
 ******************************************
 %chk=check.chk
 %mem=1500mb
 %nproc=8
 Will use up to    8 processors via shared memory.
 -----------------------
 #P opt=calcfc / scf=xqc
 -----------------------
 1/10=4,18=20,19=15,38=1/1,3;
 2/9=110,12=2,17=6,18=5,40=1/2;
 3/11=9,16=1,25=1,30=1,71=2,140=1/1,2,3;
 4//1;
 5/5=2,8=3,13=1,38=5/2,8;
 8/6=4,10=90,11=11/1;
 11/6=1,8=1,9=11,15=111,16=1/1,2,10;
 10/6=1,13=1/2;
 6/7=2,8=2,9=2,10=2,28=1/1;
 7/10=1,18=20,25=1/1,2,3,16;
 1/10=4,18=20,19=15/3(2);
 2/9=110/2;
 99//99;
 2/9=110/2;
 3/11=9,16=1,25=1,30=1,71=1/1,2,3;
 4/5=5,16=3,69=1/1;
 5/5=2,8=3,13=1,38=5/2,8;
 7//1,2,3,16;
 1/18=20,19=15/3(-5);
 2/9=110/2;
 6/7=2,8=2,9=2,10=2,19=2,28=1/1;
 99/9=1/99;
 Leave Link    1 at Sat Feb 16 14:26:38 2019, MaxMem=   196608000 cpu:         0.7
 (Enter /cm/shared/c3ddb/gaussian/09.d01/g09/l101.exe)
 ----
 name
 ----
 Symbolic Z-matrix:
 Charge =  0 Multiplicity = 1
 N                    -0.64841   0.00024  -0.36376 
 N                     0.64841  -0.00106   0.36376 
 H                    -1.14843  -0.79601   0.03022 
 H                    -1.14892   0.79443   0.03376 
 H                     0.47026   0.58527   1.17846 
 H                     1.24833   0.59198  -0.20865 
 
 NAtoms=      6 NQM=        6 NQMF=       0 NMMI=      0 NMMIF=      0
                NMic=       0 NMicF=      0.
                    Isotopes and Nuclear Properties:
 (Nuclear quadrupole moments (NQMom) in fm**2, nuclear magnetic moments (NMagM)
  in nuclear magnetons)

  Atom         1           2           3           4           5           6
 IAtWgt=          14          14           1           1           1           1
 AtmWgt=  14.0030740  14.0030740   1.0078250   1.0078250   1.0078250   1.0078250
 NucSpn=           2           2           1           1           1           1
 AtZEff=   0.0000000   0.0000000   0.0000000   0.0000000   0.0000000   0.0000000
 NQMom=    2.0440000   2.0440000   0.0000000   0.0000000   0.0000000   0.0000000
 NMagM=    0.4037610   0.4037610   2.7928460   2.7928460   2.7928460   2.7928460
 AtZNuc=   7.0000000   7.0000000   1.0000000   1.0000000   1.0000000   1.0000000
 Leave Link  101 at Sat Feb 16 14:26:38 2019, MaxMem=   196608000 cpu:         0.9
 (Enter /cm/shared/c3ddb/gaussian/09.d01/g09/l103.exe)

 GradGradGradGradGradGradGradGradGradGradGradGradGradGradGradGradGradGrad
 Berny optimization.
 Initialization pass.
                           ----------------------------
                           !    Initial Parameters    !
                           ! (Angstroms and Degrees)  !
 --------------------------                            --------------------------
 ! Name  Definition              Value          Derivative Info.                !
 --------------------------------------------------------------------------------
 ! R1    R(1,2)                  1.4869         calculate D2E/DX2 analytically  !
 ! R2    R(1,3)                  1.0194         calculate D2E/DX2 analytically  !
 ! R3    R(1,4)                  1.0194         calculate D2E/DX2 analytically  !
 ! R4    R(2,5)                  1.0194         calculate D2E/DX2 analytically  !
 ! R5    R(2,6)                  1.0194         calculate D2E/DX2 analytically  !
 ! A1    A(2,1,3)              103.7688         calculate D2E/DX2 analytically  !
 ! A2    A(2,1,4)              103.7741         calculate D2E/DX2 analytically  !
 ! A3    A(3,1,4)              102.5314         calculate D2E/DX2 analytically  !
 ! A4    A(1,2,5)              103.7741         calculate D2E/DX2 analytically  !
 ! A5    A(1,2,6)              103.7688         calculate D2E/DX2 analytically  !
 ! A6    A(5,2,6)              102.5314         calculate D2E/DX2 analytically  !
 ! D1    D(3,1,2,5)            -89.8789         calculate D2E/DX2 analytically  !
 ! D2    D(3,1,2,6)            163.2583         calculate D2E/DX2 analytically  !
 ! D3    D(4,1,2,5)             16.9839         calculate D2E/DX2 analytically  !
 ! D4    D(4,1,2,6)            -89.8789         calculate D2E/DX2 analytically  !
 --------------------------------------------------------------------------------
 Trust Radius=3.00D-01 FncErr=1.00D-07 GrdErr=1.00D-07
 Number of steps in this run=     25 maximum allowed number of steps=    100.
 GradGradGradGradGradGradGradGradGradGradGradGradGradGradGradGradGradGrad

 Leave Link  103 at Sat Feb 16 14:26:38 2019, MaxMem=   196608000 cpu:         0.1
 (Enter /cm/shared/c3ddb/gaussian/09.d01/g09/l202.exe)
                          Input orientation:                          
 ---------------------------------------------------------------------
 Center     Atomic      Atomic             Coordinates (Angstroms)
 Number     Number       Type             X           Y           Z
 ---------------------------------------------------------------------
      1          7           0       -0.648407    0.000244   -0.363758
      2          7           0        0.648408   -0.001063    0.363755
      3          1           0       -1.148434   -0.796011    0.030216
      4          1           0       -1.148921    0.794429    0.033756
      5          1           0        0.470260    0.585269    1.178458
      6          1           0        1.248332    0.591984   -0.208653
 ---------------------------------------------------------------------
                    Distance matrix (angstroms):
                    1          2          3          4          5
     1  N    0.000000
     2  N    1.486945   0.000000
     3  H    1.019443   1.992945   0.000000
     4  H    1.019442   1.993012   1.590444   0.000000
     5  H    1.993013   1.019442   2.417967   1.993950   0.000000
     6  H    1.992945   1.019443   2.779941   2.417967   1.590445
                    6
     6  H    0.000000
 Stoichiometry    H4N2
 Framework group  C1[X(H4N2)]
 Deg. of freedom    12
 Full point group                 C1      NOp   1
 Largest Abelian subgroup         C1      NOp   1
 Largest concise Abelian subgroup C1      NOp   1
                         Standard orientation:                         
 ---------------------------------------------------------------------
 Center     Atomic      Atomic             Coordinates (Angstroms)
 Number     Number       Type             X           Y           Z
 ---------------------------------------------------------------------
      1          7           0       -0.733509   -0.092793   -0.121306
      2          7           0        0.733509   -0.092790    0.121308
      3          1           0       -1.132724   -0.236928    0.805579
      4          1           0       -0.949123    0.886475   -0.305172
      5          1           0        0.949123    0.886482    0.305154
      6          1           0        1.132724   -0.236945   -0.805574
 ---------------------------------------------------------------------
 Rotational constants (GHZ):    136.3073627     23.6399356     23.5681424
 Leave Link  202 at Sat Feb 16 14:26:38 2019, MaxMem=   196608000 cpu:         0.3
 (Enter /cm/shared/c3ddb/gaussian/09.d01/g09/l301.exe)
 Standard basis: STO-3G (5D, 7F)
 Ernie: Thresh=  0.10000D-02 Tol=  0.10000D-05 Strict=F.
 There are    14 symmetry adapted cartesian basis functions of A   symmetry.
 There are    14 symmetry adapted basis functions of A   symmetry.
    14 basis functions,    42 primitive gaussians,    14 cartesian basis functions
     9 alpha electrons        9 beta electrons
       nuclear repulsion energy        40.9660771536 Hartrees.
 IExCor=    0 DFT=F Ex=HF Corr=None ExCW=0 ScaHFX=  1.000000
 ScaDFX=  1.000000  1.000000  1.000000  1.000000 ScalE2=  1.000000  1.000000
 IRadAn=      0 IRanWt=     -1 IRanGd=            0 ICorTp=0 IEmpDi=  4
 NAtoms=    6 NActive=    6 NUniq=    6 SFac= 1.00D+00 NAtFMM=   60 NAOKFM=F Big=F
 Integral buffers will be    131072 words long.
 Raffenetti 1 integral format.
 Two-electron integral symmetry is turned on.
 Leave Link  301 at Sat Feb 16 14:26:38 2019, MaxMem=   196608000 cpu:         0.9
 (Enter /cm/shared/c3ddb/gaussian/09.d01/g09/l302.exe)
 NPDir=0 NMtPBC=     1 NCelOv=     1 NCel=       1 NClECP=     1 NCelD=      1
         NCelK=      1 NCelE2=     1 NClLst=     1 CellRange=     0.0.
 One-electron integrals computed using PRISM.
 NBasis=    14 RedAO= T EigKep=  2.63D-01  NBF=    14
 NBsUse=    14 1.00D-06 EigRej= -1.00D+00 NBFU=    14
 Leave Link  302 at Sat Feb 16 14:26:39 2019, MaxMem=   196608000 cpu:         2.4
 (Enter /cm/shared/c3ddb/gaussian/09.d01/g09/l303.exe)
 DipDrv:  MaxL=1.
 Leave Link  303 at Sat Feb 16 14:26:39 2019, MaxMem=   196608000 cpu:         0.6
 (Enter /cm/shared/c3ddb/gaussian/09.d01/g09/l401.exe)
 ExpMin= 1.69D-01 ExpMax= 9.91D+01 ExpMxC= 9.91D+01 IAcc=1 IRadAn=         1 AccDes= 0.00D+00
 Harris functional with IExCor=  205 and IRadAn=       1 diagonalized for initial guess.
 HarFok:  IExCor=  205 AccDes= 0.00D+00 IRadAn=         1 IDoV= 1 UseB2=F ITyADJ=14
 ICtDFT=  3500011 ScaDFX=  1.000000  1.000000  1.000000  1.000000
 FoFCou: FMM=F IPFlag=           0 FMFlag=      100000 FMFlg1=           0
         NFxFlg=           0 DoJE=T BraDBF=F KetDBF=T FulRan=T
         wScrn=  0.000000 ICntrl=     500 IOpCl=  0 I1Cent=   200000004 NGrid=           0
         NMat0=    1 NMatS0=      1 NMatT0=    0 NMatD0=    1 NMtDS0=    0 NMtDT0=    0
 Petite list used in FoFCou.
 Harris En= -109.862254631502    
 JPrj=0 DoOrth=F DoCkMO=F.
 Leave Link  401 at Sat Feb 16 14:26:40 2019, MaxMem=   196608000 cpu:         4.6
 (Enter /cm/shared/c3ddb/gaussian/09.d01/g09/l502.exe)
 Closed shell SCF:
 Using DIIS extrapolation, IDIIS=  1040.
 Integral symmetry usage will be decided dynamically.
 Keep R1 ints in memory in canonical form, NReq=819005.
 IVT=        7593 IEndB=        7593 NGot=   196608000 MDV=   196594843
 LenX=   196594843 LenY=   196593961
 Requested convergence on RMS density matrix=1.00D-08 within  64 cycles.
 Requested convergence on MAX density matrix=1.00D-06.
 Requested convergence on             energy=1.00D-06.
 No special actions if energy rises.
 FoFCou: FMM=F IPFlag=           0 FMFlag=           0 FMFlg1=           0
         NFxFlg=           0 DoJE=F BraDBF=F KetDBF=F FulRan=T
         wScrn=  0.000000 ICntrl=     600 IOpCl=  0 I1Cent=           0 NGrid=           0
         NMat0=    1 NMatS0=    105 NMatT0=    0 NMatD0=    1 NMtDS0=    0 NMtDT0=    0
 Symmetry not used in FoFCou.

 Cycle   1  Pass 1  IDiag  1:
 E= -109.699616172510    
 DIIS: error= 4.28D-02 at cycle   1 NSaved=   1.
 NSaved= 1 IEnMin= 1 EnMin= -109.699616172510     IErMin= 1 ErrMin= 4.28D-02
 ErrMax= 4.28D-02  0.00D+00 EMaxC= 1.00D-01 BMatC= 3.90D-02 BMatP= 3.90D-02
 IDIUse=3 WtCom= 5.72D-01 WtEn= 4.28D-01
 Coeff-Com:  0.100D+01
 Coeff-En:   0.100D+01
 Coeff:      0.100D+01
 Gap=     0.936 Goal=   None    Shift=    0.000
 GapD=    0.936 DampG=2.000 DampE=0.500 DampFc=1.0000 IDamp=-1.
 RMSDP=1.91D-02 MaxDP=8.92D-02              OVMax= 0.00D+00

 Cycle   2  Pass 1  IDiag  1:
 E= -109.743024760680     Delta-E=       -0.043408588169 Rises=F Damp=F
 DIIS: error= 5.99D-03 at cycle   2 NSaved=   2.
 NSaved= 2 IEnMin= 2 EnMin= -109.743024760680     IErMin= 2 ErrMin= 5.99D-03
 ErrMax= 5.99D-03  0.00D+00 EMaxC= 1.00D-01 BMatC= 5.45D-04 BMatP= 3.90D-02
 IDIUse=3 WtCom= 9.40D-01 WtEn= 5.99D-02
 Coeff-Com:  0.394D-01 0.961D+00
 Coeff-En:   0.000D+00 0.100D+01
 Coeff:      0.371D-01 0.963D+00
 Gap=     0.943 Goal=   None    Shift=    0.000
 RMSDP=2.37D-03 MaxDP=7.61D-03 DE=-4.34D-02 OVMax= 0.00D+00

 Cycle   3  Pass 1  IDiag  1:
 E= -109.743721543371     Delta-E=       -0.000696782691 Rises=F Damp=F
 DIIS: error= 9.49D-04 at cycle   3 NSaved=   3.
 NSaved= 3 IEnMin= 3 EnMin= -109.743721543371     IErMin= 3 ErrMin= 9.49D-04
 ErrMax= 9.49D-04  0.00D+00 EMaxC= 1.00D-01 BMatC= 1.95D-05 BMatP= 5.45D-04
 IDIUse=3 WtCom= 9.91D-01 WtEn= 9.49D-03
 Coeff-Com: -0.131D-01-0.979D-01 0.111D+01
 Coeff-En:   0.000D+00 0.000D+00 0.100D+01
 Coeff:     -0.130D-01-0.970D-01 0.111D+01
 Gap=     0.911 Goal=   None    Shift=    0.000
 RMSDP=6.97D-04 MaxDP=1.67D-03 DE=-6.97D-04 OVMax= 0.00D+00

 Cycle   4  Pass 1  IDiag  1:
 E= -109.743769013637     Delta-E=       -0.000047470266 Rises=F Damp=F
 DIIS: error= 2.46D-04 at cycle   4 NSaved=   4.
 NSaved= 4 IEnMin= 4 EnMin= -109.743769013637     IErMin= 4 ErrMin= 2.46D-04
 ErrMax= 2.46D-04  0.00D+00 EMaxC= 1.00D-01 BMatC= 1.36D-06 BMatP= 1.95D-05
 IDIUse=3 WtCom= 9.98D-01 WtEn= 2.46D-03
 Coeff-Com:  0.263D-02 0.523D-02-0.357D+00 0.135D+01
 Coeff-En:   0.000D+00 0.000D+00 0.000D+00 0.100D+01
 Coeff:      0.263D-02 0.522D-02-0.356D+00 0.135D+01
 Gap=     0.912 Goal=   None    Shift=    0.000
 RMSDP=2.95D-04 MaxDP=8.78D-04 DE=-4.75D-05 OVMax= 0.00D+00

 Cycle   5  Pass 1  IDiag  1:
 E= -109.743773530946     Delta-E=       -0.000004517309 Rises=F Damp=F
 DIIS: error= 6.25D-05 at cycle   5 NSaved=   5.
 NSaved= 5 IEnMin= 5 EnMin= -109.743773530946     IErMin= 5 ErrMin= 6.25D-05
 ErrMax= 6.25D-05  0.00D+00 EMaxC= 1.00D-01 BMatC= 5.39D-08 BMatP= 1.36D-06
 IDIUse=1 WtCom= 1.00D+00 WtEn= 0.00D+00
 Coeff-Com: -0.105D-02 0.134D-02 0.158D+00-0.727D+00 0.157D+01
 Coeff:     -0.105D-02 0.134D-02 0.158D+00-0.727D+00 0.157D+01
 Gap=     0.912 Goal=   None    Shift=    0.000
 RMSDP=7.39D-05 MaxDP=3.67D-04 DE=-4.52D-06 OVMax= 0.00D+00

 Cycle   6  Pass 1  IDiag  1:
 E= -109.743773714541     Delta-E=       -0.000000183595 Rises=F Damp=F
 DIIS: error= 4.11D-06 at cycle   6 NSaved=   6.
 NSaved= 6 IEnMin= 6 EnMin= -109.743773714541     IErMin= 6 ErrMin= 4.11D-06
 ErrMax= 4.11D-06  0.00D+00 EMaxC= 1.00D-01 BMatC= 2.63D-10 BMatP= 5.39D-08
 IDIUse=1 WtCom= 1.00D+00 WtEn= 0.00D+00
 Coeff-Com:  0.481D-03-0.689D-03-0.720D-01 0.334D+00-0.738D+00 0.148D+01
 Coeff:      0.481D-03-0.689D-03-0.720D-01 0.334D+00-0.738D+00 0.148D+01
 Gap=     0.912 Goal=   None    Shift=    0.000
 RMSDP=3.72D-06 MaxDP=9.60D-06 DE=-1.84D-07 OVMax= 0.00D+00

 Cycle   7  Pass 1  IDiag  1:
 E= -109.743773715416     Delta-E=       -0.000000000875 Rises=F Damp=F
 DIIS: error= 6.25D-07 at cycle   7 NSaved=   7.
 NSaved= 7 IEnMin= 7 EnMin= -109.743773715416     IErMin= 7 ErrMin= 6.25D-07
 ErrMax= 6.25D-07  0.00D+00 EMaxC= 1.00D-01 BMatC= 7.16D-12 BMatP= 2.63D-10
 IDIUse=1 WtCom= 1.00D+00 WtEn= 0.00D+00
 Coeff-Com: -0.139D-03 0.189D-03 0.206D-01-0.956D-01 0.213D+00-0.511D+00
 Coeff-Com:  0.137D+01
 Coeff:     -0.139D-03 0.189D-03 0.206D-01-0.956D-01 0.213D+00-0.511D+00
 Coeff:      0.137D+01
 Gap=     0.912 Goal=   None    Shift=    0.000
 RMSDP=6.52D-07 MaxDP=1.50D-06 DE=-8.75D-10 OVMax= 0.00D+00

 Cycle   8  Pass 1  IDiag  1:
 E= -109.743773715439     Delta-E=       -0.000000000023 Rises=F Damp=F
 DIIS: error= 7.70D-08 at cycle   8 NSaved=   8.
 NSaved= 8 IEnMin= 8 EnMin= -109.743773715439     IErMin= 8 ErrMin= 7.70D-08
 ErrMax= 7.70D-08  0.00D+00 EMaxC= 1.00D-01 BMatC= 1.27D-13 BMatP= 7.16D-12
 IDIUse=1 WtCom= 1.00D+00 WtEn= 0.00D+00
 Coeff-Com:  0.130D-04-0.161D-04-0.188D-02 0.865D-02-0.194D-01 0.515D-01
 Coeff-Com: -0.260D+00 0.122D+01
 Coeff:      0.130D-04-0.161D-04-0.188D-02 0.865D-02-0.194D-01 0.515D-01
 Coeff:     -0.260D+00 0.122D+01
 Gap=     0.912 Goal=   None    Shift=    0.000
 RMSDP=8.54D-08 MaxDP=2.09D-07 DE=-2.32D-11 OVMax= 0.00D+00

 Cycle   9  Pass 1  IDiag  1:
 E= -109.743773715439     Delta-E=        0.000000000000 Rises=F Damp=F
 DIIS: error= 1.16D-08 at cycle   9 NSaved=   9.
 NSaved= 9 IEnMin= 9 EnMin= -109.743773715439     IErMin= 9 ErrMin= 1.16D-08
 ErrMax= 1.16D-08  0.00D+00 EMaxC= 1.00D-01 BMatC= 2.19D-15 BMatP= 1.27D-13
 IDIUse=1 WtCom= 1.00D+00 WtEn= 0.00D+00
 Coeff-Com: -0.102D-05 0.795D-06 0.131D-03-0.592D-03 0.139D-02-0.506D-02
 Coeff-Com:  0.575D-01-0.394D+00 0.134D+01
 Coeff:     -0.102D-05 0.795D-06 0.131D-03-0.592D-03 0.139D-02-0.506D-02
 Coeff:      0.575D-01-0.394D+00 0.134D+01
 Gap=     0.912 Goal=   None    Shift=    0.000
 RMSDP=8.90D-09 MaxDP=2.40D-08 DE=-3.98D-13 OVMax= 0.00D+00

 SCF Done:  E(RHF) =  -109.743773715     A.U. after    9 cycles
            NFock=  9  Conv=0.89D-08     -V/T= 2.0084
 KE= 1.088262747652D+02 PE=-3.395579647340D+02 EE= 8.002183909978D+01
 Leave Link  502 at Sat Feb 16 14:26:41 2019, MaxMem=   196608000 cpu:         9.4
 (Enter /cm/shared/c3ddb/gaussian/09.d01/g09/l508.exe)
 QCSCF skips out because SCF is already converged.
 Leave Link  508 at Sat Feb 16 14:26:41 2019, MaxMem=   196608000 cpu:         0.0
 (Enter /cm/shared/c3ddb/gaussian/09.d01/g09/l801.exe)
 Range of M.O.s used for correlation:     1    14
 NBasis=    14 NAE=     9 NBE=     9 NFC=     0 NFV=     0
 NROrb=     14 NOA=     9 NOB=     9 NVA=     5 NVB=     5
 Leave Link  801 at Sat Feb 16 14:26:42 2019, MaxMem=   196608000 cpu:         0.2
 (Enter /cm/shared/c3ddb/gaussian/09.d01/g09/l1101.exe)
 Using compressed storage, NAtomX=     6.
 Will process      7 centers per pass.
 Leave Link 1101 at Sat Feb 16 14:26:42 2019, MaxMem=   196608000 cpu:         2.9
 (Enter /cm/shared/c3ddb/gaussian/09.d01/g09/l1102.exe)
 Symmetrizing basis deriv contribution to polar:
 IMax=3 JMax=2 DiffMx= 0.00D+00
 Leave Link 1102 at Sat Feb 16 14:26:42 2019, MaxMem=   196608000 cpu:         0.5
 (Enter /cm/shared/c3ddb/gaussian/09.d01/g09/l1110.exe)
 Forming Gx(P) for the SCF density, NAtomX=     6.
 Integral derivatives from FoFJK, PRISM(SPDF).
 Do as many integral derivatives as possible in FoFJK.
 G2DrvN: MDV=     196607848.
 G2DrvN: will do     7 centers at a time, making    1 passes.
 Calling FoFCou, ICntrl=  3107 FMM=F I1Cent=   0 AccDes= 0.00D+00.
 FoFJK:  IHMeth= 1 ICntrl=    3107 DoSepK=F KAlg= 0 I1Cent=   0 FoldK=F
 IRaf=         0 NMat=   1 IRICut=       1 DoRegI=T DoRafI=F ISym2E= 0.
 FoFCou: FMM=F IPFlag=           0 FMFlag=      100000 FMFlg1=           0
         NFxFlg=           0 DoJE=F BraDBF=F KetDBF=F FulRan=T
         wScrn=  0.000000 ICntrl=    3107 IOpCl=  0 I1Cent=           0 NGrid=           0
         NMat0=    1 NMatS0=      1 NMatT0=    0 NMatD0=    1 NMtDS0=    0 NMtDT0=    0
 Symmetry not used in FoFCou.
 End of G2Drv F.D. properties file   721 does not exist.
 End of G2Drv F.D. properties file   722 does not exist.
 End of G2Drv F.D. properties file   788 does not exist.
 Leave Link 1110 at Sat Feb 16 14:26:43 2019, MaxMem=   196608000 cpu:         2.5
 (Enter /cm/shared/c3ddb/gaussian/09.d01/g09/l1002.exe)
 Minotr:  Closed shell wavefunction.
          IDoAtm=111111
          Direct CPHF calculation.
          Differentiating once with respect to nuclear coordinates.
          Requested convergence is 1.0D-08 RMS, and 1.0D-07 maximum.
          Secondary convergence is 1.0D-12 RMS, and 1.0D-12 maximum.
          NewPWx=T KeepS1=F KeepF1=F KeepIn=T MapXYZ=F SortEE=F KeepMc=T.
          MDV=     196607922 using IRadAn=       2.
 Keep R1 ints in memory in canonical form, NReq=814220.
 FoFCou: FMM=F IPFlag=           0 FMFlag=           0 FMFlg1=           0
         NFxFlg=           0 DoJE=F BraDBF=F KetDBF=F FulRan=T
         wScrn=  0.000000 ICntrl=     600 IOpCl=  0 I1Cent=           0 NGrid=           0
         NMat0=    1 NMatS0=    105 NMatT0=    0 NMatD0=    1 NMtDS0=    0 NMtDT0=    0
 Symmetry not used in FoFCou.
          Solving linear equations simultaneously, MaxMat=       0.
          There are    21 degrees of freedom in the 1st order CPHF.  IDoFFX=6 NUNeed=     0.
     15 vectors produced by pass  0 Test12= 2.14D-16 4.76D-09 XBig12= 2.66D-02 8.97D-02.
 AX will form    15 AO Fock derivatives at one time.
     15 vectors produced by pass  1 Test12= 2.14D-16 4.76D-09 XBig12= 1.54D-04 5.91D-03.
     14 vectors produced by pass  2 Test12= 2.14D-16 4.76D-09 XBig12= 3.17D-07 2.68D-04.
      1 vectors produced by pass  3 Test12= 2.14D-16 4.76D-09 XBig12= 2.62D-11 3.05D-06.
 InvSVY:  IOpt=1 It=  1 EMax= 6.66D-16
 Solved reduced A of dimension    45 with    15 vectors.
 End of Minotr F.D. properties file   721 does not exist.
 End of Minotr F.D. properties file   722 does not exist.
 End of Minotr F.D. properties file   788 does not exist.
 Leave Link 1002 at Sat Feb 16 14:26:44 2019, MaxMem=   196608000 cpu:         9.4
 (Enter /cm/shared/c3ddb/gaussian/09.d01/g09/l601.exe)
 Copying SCF densities to generalized density rwf, IOpCl= 0 IROHF=0.

 **********************************************************************

            Population analysis using the SCF density.

 **********************************************************************

 Orbital symmetries:
       Occupied  (A) (A) (A) (A) (A) (A) (A) (A) (A)
       Virtual   (A) (A) (A) (A) (A)
 The electronic state is 1-A.
 Alpha  occ. eigenvalues --  -15.35420 -15.35350  -1.20626  -0.97130  -0.61397
 Alpha  occ. eigenvalues --   -0.60266  -0.52426  -0.36856  -0.34929
 Alpha virt. eigenvalues --    0.56247   0.59344   0.66651   0.69463   0.74462
          Condensed to atoms (all electrons):
               1          2          3          4          5          6
     1  N    6.449997   0.262968   0.329379   0.326740  -0.027168  -0.030996
     2  N    0.262968   6.449997  -0.030996  -0.027168   0.326740   0.329379
     3  H    0.329379  -0.030996   0.573299  -0.041505   0.000793   0.003261
     4  H    0.326740  -0.027168  -0.041505   0.605949  -0.009961   0.000793
     5  H   -0.027168   0.326740   0.000793  -0.009961   0.605949  -0.041504
     6  H   -0.030996   0.329379   0.003261   0.000793  -0.041504   0.573298
 Mulliken charges:
               1
     1  N   -0.310920
     2  N   -0.310920
     3  H    0.165769
     4  H    0.145151
     5  H    0.145151
     6  H    0.165769
 Sum of Mulliken charges =   0.00000
 Mulliken charges with hydrogens summed into heavy atoms:
               1
     1  N    0.000000
     2  N    0.000000
 APT charges:
               1
     1  N   -0.763059
     2  N   -0.763059
     3  H    0.399157
     4  H    0.363902
     5  H    0.363902
     6  H    0.399157
 Sum of APT charges =   0.00000
 APT charges with hydrogens summed into heavy atoms:
               1
     1  N    0.000000
     2  N    0.000000
 Electronic spatial extent (au):  <R**2>=             81.8275
 Charge=              0.0000 electrons
 Dipole moment (field-independent basis, Debye):
    X=              0.0000    Y=              2.3373    Z=              0.0000  Tot=              2.3373
 Quadrupole moment (field-independent basis, Debye-Ang):
   XX=            -12.1752   YY=            -11.8343   ZZ=            -12.1059
   XY=              0.0000   XZ=             -2.7164   YZ=              0.0000
 Traceless Quadrupole moment (field-independent basis, Debye-Ang):
   XX=             -0.1367   YY=              0.2042   ZZ=             -0.0674
   XY=              0.0000   XZ=             -2.7164   YZ=              0.0000
 Octapole moment (field-independent basis, Debye-Ang**2):
  XXX=              0.0000  YYY=              1.9549  ZZZ=              0.0000  XYY=              0.0000
  XXY=              2.0972  XXZ=              0.0000  XZZ=              0.0000  YZZ=              0.2003
  YYZ=              0.0000  XYZ=              1.3320
 Hexadecapole moment (field-independent basis, Debye-Ang**3):
 XXXX=            -56.6322 YYYY=            -14.5202 ZZZZ=            -14.5366 XXXY=              0.0000
 XXXZ=             -3.5215 YYYX=              0.0000 YYYZ=              0.0000 ZZZX=             -2.2880
 ZZZY=              0.0000 XXYY=            -11.7708 XXZZ=            -11.2866 YYZZ=             -5.1515
 XXYZ=              0.0000 YYXZ=             -0.0851 ZZXY=              0.0000
 N-N= 4.096607715358D+01 E-N=-3.395579646984D+02  KE= 1.088262747652D+02
  Exact polarizability:   0.000   0.000   0.000   0.000   0.000   0.000
 Approx polarizability:   7.322   0.000   6.120  -1.247   0.000   5.589
 No NMR shielding tensors so no spin-rotation constants.
 Leave Link  601 at Sat Feb 16 14:26:45 2019, MaxMem=   196608000 cpu:         3.1
 (Enter /cm/shared/c3ddb/gaussian/09.d01/g09/l701.exe)
 Compute integral second derivatives.
 ... and contract with generalized density number  0.
 Leave Link  701 at Sat Feb 16 14:26:45 2019, MaxMem=   196608000 cpu:         2.7
 (Enter /cm/shared/c3ddb/gaussian/09.d01/g09/l702.exe)
 L702 exits ... SP integral derivatives will be done elsewhere.
 Leave Link  702 at Sat Feb 16 14:26:45 2019, MaxMem=   196608000 cpu:         0.2
 (Enter /cm/shared/c3ddb/gaussian/09.d01/g09/l703.exe)
 Compute integral second derivatives, UseDBF=F ICtDFT=           0.
 Integral derivatives from FoFJK, PRISM(SPDF).
 Calling FoFJK, ICntrl=    100147 FMM=F ISym2X=0 I1Cent= 0 IOpClX= 0 NMat=1 NMatS=1 NMatT=0.
 FoFJK:  IHMeth= 1 ICntrl=  100147 DoSepK=F KAlg= 0 I1Cent=   0 FoldK=F
 IRaf=         0 NMat=   1 IRICut=       1 DoRegI=T DoRafI=F ISym2E= 0.
 FoFCou: FMM=F IPFlag=           0 FMFlag=      100000 FMFlg1=         800
         NFxFlg=           0 DoJE=F BraDBF=F KetDBF=F FulRan=T
         wScrn=  0.000000 ICntrl=  100147 IOpCl=  0 I1Cent=           0 NGrid=           0
         NMat0=    1 NMatS0=      1 NMatT0=    0 NMatD0=    1 NMtDS0=    0 NMtDT0=    0
 Symmetry not used in FoFCou.
 Leave Link  703 at Sat Feb 16 14:26:46 2019, MaxMem=   196608000 cpu:         3.0
 (Enter /cm/shared/c3ddb/gaussian/09.d01/g09/l716.exe)
 Dipole        = 2.61351192D-07 9.19561356D-01-9.29416579D-06
 Polarizability= 0.00000000D+00 0.00000000D+00 0.00000000D+00
                 0.00000000D+00 0.00000000D+00 0.00000000D+00
 ***** Axes restored to original set *****
 -------------------------------------------------------------------
 Center     Atomic                   Forces (Hartrees/Bohr)
 Number     Number              X              Y              Z
 -------------------------------------------------------------------
      1        7           0.034095446   -0.000155445    0.000075164
      2        7          -0.025864198   -0.016588974   -0.014777628
      3        1          -0.009663894   -0.019972761    0.004159395
      4        1          -0.017699395    0.019254129    0.000529926
      5        1           0.003816274    0.008986665    0.024267657
      6        1           0.015315766    0.008476386   -0.014254513
 -------------------------------------------------------------------
 Cartesian Forces:  Max     0.034095446 RMS     0.016180901
 Force constants in Cartesian coordinates: 
                1             2             3             4             5 
      1  0.729449D+00
      2  0.280612D-01  0.896917D+00
      3 -0.755671D-01  0.123731D-01  0.381341D+00
      4 -0.302420D+00  0.392443D-01 -0.566026D-01  0.682121D+00
      5 -0.531493D-01 -0.975689D-01 -0.234225D-01  0.166662D+00  0.528884D+00
      6 -0.161571D+00  0.250690D-01 -0.155438D+00 -0.149569D+00  0.873043D-01
      7 -0.190736D+00 -0.197451D+00  0.814855D-01 -0.268353D-01 -0.357804D-01
      8 -0.180945D+00 -0.399064D+00  0.134483D+00  0.422212D-02  0.987853D-02
      9  0.131571D+00  0.231414D+00 -0.111343D+00 -0.239163D-01 -0.263854D-01
     10 -0.190940D+00  0.193281D+00  0.834390D-01 -0.414476D-01  0.359538D-01
     11  0.178060D+00 -0.391612D+00 -0.134340D+00 -0.504411D-02  0.612231D-02
     12  0.138342D+00 -0.232458D+00 -0.113062D+00 -0.391850D-01  0.219057D-01
     13 -0.171081D-01 -0.287599D-01 -0.552930D-01 -0.912316D-01  0.439482D-01
     14  0.149941D-01 -0.371330D-02  0.101002D-01  0.416891D-01 -0.223021D+00
     15 -0.634883D-02 -0.177334D-01 -0.211057D-01  0.794475D-01 -0.208201D+00
     16 -0.282452D-01 -0.343759D-01  0.225381D-01 -0.220186D+00 -0.157634D+00
     17  0.129795D-01 -0.495879D-02  0.805561D-03 -0.246773D+00 -0.224295D+00
     18 -0.264271D-01 -0.186643D-01  0.196088D-01  0.189825D+00  0.148799D+00
                6             7             8             9            10 
      6  0.796702D+00
      7  0.266051D-01  0.209514D+00
      8  0.305227D-02  0.204119D+00  0.421896D+00
      9  0.336163D-02 -0.937528D-01 -0.170250D+00  0.111500D+00
     10  0.128979D-01  0.165179D-01 -0.310451D-01 -0.761950D-02  0.212801D+00
     11 -0.438484D-02  0.321795D-01 -0.332303D-01 -0.329299D-01 -0.201077D+00
     12 -0.660190D-02 -0.718385D-02  0.320493D-01 -0.349811D-03 -0.908872D-01
     13  0.114443D+00  0.429027D-03  0.165684D-02 -0.224567D-02  0.393434D-02
     14 -0.316106D+00 -0.146197D-02 -0.773217D-03 -0.133693D-02  0.493391D-03
     15 -0.381360D+00  0.433755D-03  0.380294D-03 -0.114150D-02  0.383396D-02
     16  0.157193D+00 -0.888907D-02  0.199290D-02 -0.403703D-02 -0.865508D-03
     17  0.205066D+00 -0.160477D-02  0.129299D-02 -0.511573D-03  0.239384D-02
     18 -0.256663D+00 -0.758766D-02  0.284936D-03 -0.202691D-02 -0.166416D-02
               11            12            13            14            15 
     11  0.414607D+00
     12  0.172769D+00  0.115960D+00
     13 -0.416669D-02 -0.296530D-02  0.107022D+00
     14  0.410103D-02  0.490673D-02 -0.440372D-01  0.213414D+00
     15 -0.600389D-03  0.468565D-02 -0.823457D-01  0.259231D+00  0.422931D+00
     16  0.485972D-04  0.187907D-02 -0.304526D-02 -0.116774D-01  0.497930D-02
     17  0.114544D-04  0.827433D-03  0.313587D-01  0.999198D-02 -0.330766D-01
     18 -0.514405D-03 -0.631643D-03  0.284063D-01  0.432050D-01 -0.240089D-01
               16            17            18 
     16  0.261231D+00
     17  0.201646D+00  0.217957D+00
     18 -0.182552D+00 -0.173110D+00  0.263722D+00
 FormGI is forming the generalized inverse of G from B-inverse, IUseBI=4.
 Force constants in internal coordinates: 
                1             2             3             4             5 
      1  0.495040D+00
      2 -0.649432D-02  0.619164D+00
      3 -0.968836D-02 -0.169117D-01  0.614135D+00
      4 -0.968833D-02  0.117246D-03  0.348753D-02  0.614134D+00
      5 -0.649434D-02 -0.103787D-02  0.117245D-03 -0.169117D-01  0.619165D+00
      6  0.601495D-01  0.106596D-01  0.957832D-02  0.249627D-02  0.511655D-02
      7  0.799819D-01  0.104057D-01  0.938485D-03 -0.128029D-01 -0.524389D-02
      8 -0.166946D-01  0.139306D-01  0.153327D-01  0.103772D-02 -0.524664D-03
      9  0.799818D-01 -0.524389D-02 -0.128030D-01  0.938510D-03  0.104057D-01
     10  0.601495D-01  0.511654D-02  0.249627D-02  0.957832D-02  0.106596D-01
     11 -0.166946D-01 -0.524666D-03  0.103773D-02  0.153327D-01  0.139306D-01
     12  0.181959D-02 -0.111899D-01 -0.127061D-01  0.963109D-02  0.114424D-01
     13 -0.264268D-01 -0.105809D-01 -0.104234D-01 -0.104234D-01 -0.105809D-01
     14  0.300660D-01  0.108333D-01  0.734843D-02  0.734844D-02  0.108333D-01
     15  0.181956D-02  0.114424D-01  0.963109D-02 -0.127061D-01 -0.111899D-01
                6             7             8             9            10 
      6  0.268941D+00
      7 -0.238932D-01  0.297321D+00
      8 -0.606749D-01 -0.652850D-01  0.800567D-01
      9  0.158500D-02 -0.504791D-02  0.185152D-02  0.297320D+00
     10  0.371018D-01  0.158503D-02 -0.985948D-02 -0.238933D-01  0.268941D+00
     11 -0.985949D-02  0.185152D-02  0.155336D-02 -0.652851D-01 -0.606749D-01
     12 -0.609281D-02 -0.985567D-02 -0.234106D-01  0.902101D-02  0.715046D-02
     13 -0.821500D-02 -0.107138D-01 -0.224441D-01 -0.107139D-01 -0.821501D-02
     14  0.927264D-02  0.987917D-02  0.215388D-01  0.987918D-02  0.927265D-02
     15  0.715045D-02  0.902099D-02  0.225054D-01 -0.985568D-02 -0.609282D-02
               11            12            13            14            15 
     11  0.800566D-01
     12  0.225053D-01  0.304375D-01
     13 -0.224440D-01  0.759257D-03  0.312822D-01
     14  0.215387D-01 -0.145929D-03 -0.297637D-01  0.294719D-01
     15 -0.234106D-01 -0.298241D-01  0.759207D-03 -0.145881D-03  0.304375D-01
 Leave Link  716 at Sat Feb 16 14:26:46 2019, MaxMem=   196608000 cpu:         0.9
 (Enter /cm/shared/c3ddb/gaussian/09.d01/g09/l103.exe)

 GradGradGradGradGradGradGradGradGradGradGradGradGradGradGradGradGradGrad
 Berny optimization.
 Red2BG is reusing G-inverse.
 Internal  Forces:  Max     0.023896204 RMS     0.014246789
 Search for a local minimum.
 Step number   1 out of a maximum of   25
 All quantities printed in internal units (Hartrees-Bohrs-Radians)
 RMS Force = .14247D-01 SwitMx=.10000D-02 MixMth= 1
 Mixed Optimization -- RFO/linear search
 Second derivative matrix not updated -- analytic derivatives used.
 The second derivative matrix:
                          R1        R2        R3        R4        R5
           R1           0.49504
           R2          -0.00649   0.61916
           R3          -0.00969  -0.01691   0.61414
           R4          -0.00969   0.00012   0.00349   0.61413
           R5          -0.00649  -0.00104   0.00012  -0.01691   0.61917
           A1           0.06015   0.01066   0.00958   0.00250   0.00512
           A2           0.07998   0.01041   0.00094  -0.01280  -0.00524
           A3          -0.01669   0.01393   0.01533   0.00104  -0.00052
           A4           0.07998  -0.00524  -0.01280   0.00094   0.01041
           A5           0.06015   0.00512   0.00250   0.00958   0.01066
           A6          -0.01669  -0.00052   0.00104   0.01533   0.01393
           D1           0.00182  -0.01119  -0.01271   0.00963   0.01144
           D2          -0.02643  -0.01058  -0.01042  -0.01042  -0.01058
           D3           0.03007   0.01083   0.00735   0.00735   0.01083
           D4           0.00182   0.01144   0.00963  -0.01271  -0.01119
                          A1        A2        A3        A4        A5
           A1           0.26894
           A2          -0.02389   0.29732
           A3          -0.06067  -0.06529   0.08006
           A4           0.00158  -0.00505   0.00185   0.29732
           A5           0.03710   0.00159  -0.00986  -0.02389   0.26894
           A6          -0.00986   0.00185   0.00155  -0.06529  -0.06067
           D1          -0.00609  -0.00986  -0.02341   0.00902   0.00715
           D2          -0.00822  -0.01071  -0.02244  -0.01071  -0.00822
           D3           0.00927   0.00988   0.02154   0.00988   0.00927
           D4           0.00715   0.00902   0.02251  -0.00986  -0.00609
                          A6        D1        D2        D3        D4
           A6           0.08006
           D1           0.02251   0.03044
           D2          -0.02244   0.00076   0.03128
           D3           0.02154  -0.00015  -0.02976   0.02947
           D4          -0.02341  -0.02982   0.00076  -0.00015   0.03044
 ITU=  0
     Eigenvalues ---    0.00112   0.09329   0.10008   0.23863   0.24682
     Eigenvalues ---    0.32184   0.32301   0.57157   0.60186   0.60830
     Eigenvalues ---    0.63323   0.63617
 RFO step:  Lambda=-7.93831124D-03 EMin= 1.11678484D-03
 Linear search not attempted -- first point.
 Iteration  1 RMS(Cart)=  0.05796295 RMS(Int)=  0.00313245
 Iteration  2 RMS(Cart)=  0.00213797 RMS(Int)=  0.00127981
 Iteration  3 RMS(Cart)=  0.00000579 RMS(Int)=  0.00127980
 Iteration  4 RMS(Cart)=  0.00000002 RMS(Int)=  0.00127980
 ITry= 1 IFail=0 DXMaxC= 1.13D-01 DCOld= 1.00D+10 DXMaxT= 3.00D-01 DXLimC= 3.00D+00 Rises=F
 Variable       Old X    -DE/DX   Delta X   Delta X   Delta X     New X
                                 (Linear)    (Quad)   (Total)
    R1        2.80992  -0.00820   0.00000  -0.05122  -0.05122   2.75870
    R2        1.92647   0.02195   0.00000   0.03124   0.03124   1.95771
    R3        1.92647   0.02390   0.00000   0.03646   0.03646   1.96292
    R4        1.92647   0.02390   0.00000   0.03646   0.03646   1.96292
    R5        1.92647   0.02195   0.00000   0.03124   0.03124   1.95771
    A1        1.81111   0.00253   0.00000   0.02391   0.02292   1.83403
    A2        1.81120   0.01909   0.00000   0.08169   0.08080   1.89200
    A3        1.78951   0.00079   0.00000   0.03084   0.02841   1.81792
    A4        1.81120   0.01909   0.00000   0.08169   0.08080   1.89200
    A5        1.81111   0.00253   0.00000   0.02391   0.02292   1.83403
    A6        1.78951   0.00079   0.00000   0.03084   0.02841   1.81792
    D1       -1.56868  -0.00045   0.00000  -0.01334  -0.01334  -1.58202
    D2        2.84940  -0.00845   0.00000  -0.08158  -0.08373   2.76567
    D3        0.29642   0.00754   0.00000   0.05490   0.05704   0.35347
    D4       -1.56868  -0.00045   0.00000  -0.01334  -0.01334  -1.58202
         Item               Value     Threshold  Converged?
 Maximum Force            0.023896     0.000450     NO 
 RMS     Force            0.014247     0.000300     NO 
 Maximum Displacement     0.112989     0.001800     NO 
 RMS     Displacement     0.057988     0.001200     NO 
 Predicted change in Energy=-4.102297D-03
 Lowest energy point so far.  Saving SCF results.
 GradGradGradGradGradGradGradGradGradGradGradGradGradGradGradGradGradGrad

 Leave Link  103 at Sat Feb 16 14:26:50 2019, MaxMem=   196608000 cpu:        23.5
 (Enter /cm/shared/c3ddb/gaussian/09.d01/g09/l202.exe)
                          Input orientation:                          
 ---------------------------------------------------------------------
 Center     Atomic      Atomic             Coordinates (Angstroms)
 Number     Number       Type             X           Y           Z
 ---------------------------------------------------------------------
      1          7           0       -0.644413    0.008575   -0.343124
      2          7           0        0.632452    0.014937    0.364486
      3          1           0       -1.148516   -0.821379    0.017851
      4          1           0       -1.208712    0.813967   -0.008644
      5          1           0        0.524336    0.577358    1.231066
      6          1           0        1.266090    0.581396   -0.227861
 ---------------------------------------------------------------------
                    Distance matrix (angstroms):
                    1          2          3          4          5
     1  N    0.000000
     2  N    1.459841   0.000000
     3  H    1.035977   1.997856   0.000000
     4  H    1.038733   2.041461   1.636668   0.000000
     5  H    2.041461   1.038733   2.495354   2.143904   0.000000
     6  H    1.997856   1.035976   2.803297   2.495354   1.636668
                    6
     6  H    0.000000
 Stoichiometry    H4N2
 Framework group  C1[X(H4N2)]
 Deg. of freedom    12
 Full point group                 C1      NOp   1
 RotChk:  IX=0 Diff= 3.60D-03
 Largest Abelian subgroup         C1      NOp   1
 Largest concise Abelian subgroup C1      NOp   1
                         Standard orientation:                         
 ---------------------------------------------------------------------
 Center     Atomic      Atomic             Coordinates (Angstroms)
 Number     Number       Type             X           Y           Z
 ---------------------------------------------------------------------
      1          7           0       -0.720707   -0.087039   -0.115611
      2          7           0        0.720707   -0.087038    0.115611
      3          1           0       -1.142514   -0.273947    0.811962
      4          1           0       -1.017053    0.883218   -0.338652
      5          1           0        1.017053    0.883220    0.338648
      6          1           0        1.142514   -0.273951   -0.811960
 ---------------------------------------------------------------------
 Rotational constants (GHZ):    134.8585443     23.8416052     23.8047823
 Leave Link  202 at Sat Feb 16 14:26:50 2019, MaxMem=   196608000 cpu:         0.3
 (Enter /cm/shared/c3ddb/gaussian/09.d01/g09/l301.exe)
 Standard basis: STO-3G (5D, 7F)
 Ernie: Thresh=  0.10000D-02 Tol=  0.10000D-05 Strict=F.
 There are    14 symmetry adapted cartesian basis functions of A   symmetry.
 There are    14 symmetry adapted basis functions of A   symmetry.
    14 basis functions,    42 primitive gaussians,    14 cartesian basis functions
     9 alpha electrons        9 beta electrons
       nuclear repulsion energy        40.8890262443 Hartrees.
 IExCor=    0 DFT=F Ex=HF Corr=None ExCW=0 ScaHFX=  1.000000
 ScaDFX=  1.000000  1.000000  1.000000  1.000000 ScalE2=  1.000000  1.000000
 IRadAn=      0 IRanWt=     -1 IRanGd=            0 ICorTp=0 IEmpDi=  4
 NAtoms=    6 NActive=    6 NUniq=    6 SFac= 1.00D+00 NAtFMM=   60 NAOKFM=F Big=F
 Integral buffers will be    131072 words long.
 Raffenetti 1 integral format.
 Two-electron integral symmetry is turned on.
 Leave Link  301 at Sat Feb 16 14:26:50 2019, MaxMem=   196608000 cpu:         0.4
 (Enter /cm/shared/c3ddb/gaussian/09.d01/g09/l302.exe)
 NPDir=0 NMtPBC=     1 NCelOv=     1 NCel=       1 NClECP=     1 NCelD=      1
         NCelK=      1 NCelE2=     1 NClLst=     1 CellRange=     0.0.
 One-electron integrals computed using PRISM.
 NBasis=    14 RedAO= T EigKep=  2.74D-01  NBF=    14
 NBsUse=    14 1.00D-06 EigRej= -1.00D+00 NBFU=    14
 Leave Link  302 at Sat Feb 16 14:26:51 2019, MaxMem=   196608000 cpu:         2.4
 (Enter /cm/shared/c3ddb/gaussian/09.d01/g09/l303.exe)
 DipDrv:  MaxL=1.
 Leave Link  303 at Sat Feb 16 14:26:51 2019, MaxMem=   196608000 cpu:         0.6
 (Enter /cm/shared/c3ddb/gaussian/09.d01/g09/l401.exe)
 Initial guess from the checkpoint file:  "check.chk"
 B after Tr=     0.000000    0.000000    0.000000
         Rot=    1.000000   -0.000004   -0.000489    0.000000 Ang=  -0.06 deg.
 Guess basis will be translated and rotated to current coordinates.
 JPrj=2 DoOrth=T DoCkMO=T.
 Generating alternative initial guess.
 ExpMin= 1.69D-01 ExpMax= 9.91D+01 ExpMxC= 9.91D+01 IAcc=1 IRadAn=         1 AccDes= 0.00D+00
 Harris functional with IExCor=  205 and IRadAn=       1 diagonalized for initial guess.
 HarFok:  IExCor=  205 AccDes= 0.00D+00 IRadAn=         1 IDoV= 1 UseB2=F ITyADJ=14
 ICtDFT=  3500011 ScaDFX=  1.000000  1.000000  1.000000  1.000000
 FoFCou: FMM=F IPFlag=           0 FMFlag=      100000 FMFlg1=           0
         NFxFlg=           0 DoJE=T BraDBF=F KetDBF=T FulRan=T
         wScrn=  0.000000 ICntrl=     500 IOpCl=  0 I1Cent=   200000004 NGrid=           0
         NMat0=    1 NMatS0=      1 NMatT0=    0 NMatD0=    1 NMtDS0=    0 NMtDT0=    0
 Petite list used in FoFCou.
 Harris En= -109.866652372318    
 Leave Link  401 at Sat Feb 16 14:26:52 2019, MaxMem=   196608000 cpu:         8.8
 (Enter /cm/shared/c3ddb/gaussian/09.d01/g09/l502.exe)
 Closed shell SCF:
 Using DIIS extrapolation, IDIIS=  1040.
 Integral symmetry usage will be decided dynamically.
 Keep R1 ints in memory in canonical form, NReq=819005.
 IVT=        7593 IEndB=        7593 NGot=   196608000 MDV=   196594843
 LenX=   196594843 LenY=   196593961
 Requested convergence on RMS density matrix=1.00D-08 within  64 cycles.
 Requested convergence on MAX density matrix=1.00D-06.
 Requested convergence on             energy=1.00D-06.
 No special actions if energy rises.
 FoFCou: FMM=F IPFlag=           0 FMFlag=           0 FMFlg1=           0
         NFxFlg=           0 DoJE=F BraDBF=F KetDBF=F FulRan=T
         wScrn=  0.000000 ICntrl=     600 IOpCl=  0 I1Cent=           0 NGrid=           0
         NMat0=    1 NMatS0=    105 NMatT0=    0 NMatD0=    1 NMtDS0=    0 NMtDT0=    0
 Symmetry not used in FoFCou.

 Cycle   1  Pass 1  IDiag  1:
 E= -109.746131354718    
 DIIS: error= 5.39D-03 at cycle   1 NSaved=   1.
 NSaved= 1 IEnMin= 1 EnMin= -109.746131354718     IErMin= 1 ErrMin= 5.39D-03
 ErrMax= 5.39D-03  0.00D+00 EMaxC= 1.00D-01 BMatC= 6.86D-04 BMatP= 6.86D-04
 IDIUse=3 WtCom= 9.46D-01 WtEn= 5.39D-02
 Coeff-Com:  0.100D+01
 Coeff-En:   0.100D+01
 Coeff:      0.100D+01
 Gap=     0.947 Goal=   None    Shift=    0.000
 GapD=    0.947 DampG=2.000 DampE=1.000 DampFc=2.0000 IDamp=-1.
 RMSDP=3.81D-03 MaxDP=1.30D-02              OVMax= 0.00D+00

 Cycle   2  Pass 1  IDiag  1:
 E= -109.747735927259     Delta-E=       -0.001604572541 Rises=F Damp=F
 DIIS: error= 1.65D-03 at cycle   2 NSaved=   2.
 NSaved= 2 IEnMin= 2 EnMin= -109.747735927259     IErMin= 2 ErrMin= 1.65D-03
 ErrMax= 1.65D-03  0.00D+00 EMaxC= 1.00D-01 BMatC= 8.58D-05 BMatP= 6.86D-04
 IDIUse=3 WtCom= 9.83D-01 WtEn= 1.65D-02
 Coeff-Com: -0.453D+00 0.145D+01
 Coeff-En:   0.000D+00 0.100D+01
 Coeff:     -0.445D+00 0.145D+01
 Gap=     0.922 Goal=   None    Shift=    0.000
 RMSDP=2.13D-03 MaxDP=7.08D-03 DE=-1.60D-03 OVMax= 0.00D+00

 Cycle   3  Pass 1  IDiag  1:
 E= -109.748000050120     Delta-E=       -0.000264122861 Rises=F Damp=F
 DIIS: error= 3.27D-04 at cycle   3 NSaved=   3.
 NSaved= 3 IEnMin= 3 EnMin= -109.748000050120     IErMin= 3 ErrMin= 3.27D-04
 ErrMax= 3.27D-04  0.00D+00 EMaxC= 1.00D-01 BMatC= 2.02D-06 BMatP= 8.58D-05
 IDIUse=3 WtCom= 9.97D-01 WtEn= 3.27D-03
 Coeff-Com:  0.743D-01-0.338D+00 0.126D+01
 Coeff-En:   0.000D+00 0.000D+00 0.100D+01
 Coeff:      0.740D-01-0.337D+00 0.126D+01
 Gap=     0.922 Goal=   None    Shift=    0.000
 RMSDP=3.52D-04 MaxDP=1.10D-03 DE=-2.64D-04 OVMax= 0.00D+00

 Cycle   4  Pass 1  IDiag  1:
 E= -109.748006510742     Delta-E=       -0.000006460622 Rises=F Damp=F
 DIIS: error= 5.89D-05 at cycle   4 NSaved=   4.
 NSaved= 4 IEnMin= 4 EnMin= -109.748006510742     IErMin= 4 ErrMin= 5.89D-05
 ErrMax= 5.89D-05  0.00D+00 EMaxC= 1.00D-01 BMatC= 7.78D-08 BMatP= 2.02D-06
 IDIUse=1 WtCom= 1.00D+00 WtEn= 0.00D+00
 Coeff-Com: -0.737D-02 0.537D-01-0.377D+00 0.133D+01
 Coeff:     -0.737D-02 0.537D-01-0.377D+00 0.133D+01
 Gap=     0.922 Goal=   None    Shift=    0.000
 RMSDP=6.40D-05 MaxDP=1.57D-04 DE=-6.46D-06 OVMax= 0.00D+00

 Cycle   5  Pass 1  IDiag  1:
 E= -109.748006745972     Delta-E=       -0.000000235230 Rises=F Damp=F
 DIIS: error= 7.68D-06 at cycle   5 NSaved=   5.
 NSaved= 5 IEnMin= 5 EnMin= -109.748006745972     IErMin= 5 ErrMin= 7.68D-06
 ErrMax= 7.68D-06  0.00D+00 EMaxC= 1.00D-01 BMatC= 1.67D-09 BMatP= 7.78D-08
 IDIUse=1 WtCom= 1.00D+00 WtEn= 0.00D+00
 Coeff-Com: -0.157D-02 0.582D-02-0.116D-01-0.103D+00 0.111D+01
 Coeff:     -0.157D-02 0.582D-02-0.116D-01-0.103D+00 0.111D+01
 Gap=     0.922 Goal=   None    Shift=    0.000
 RMSDP=7.75D-06 MaxDP=2.19D-05 DE=-2.35D-07 OVMax= 0.00D+00

 Cycle   6  Pass 1  IDiag  1:
 E= -109.748006750642     Delta-E=       -0.000000004670 Rises=F Damp=F
 DIIS: error= 2.09D-06 at cycle   6 NSaved=   6.
 NSaved= 6 IEnMin= 6 EnMin= -109.748006750642     IErMin= 6 ErrMin= 2.09D-06
 ErrMax= 2.09D-06  0.00D+00 EMaxC= 1.00D-01 BMatC= 8.97D-11 BMatP= 1.67D-09
 IDIUse=1 WtCom= 1.00D+00 WtEn= 0.00D+00
 Coeff-Com:  0.757D-03-0.393D-02 0.195D-01-0.261D-01-0.308D+00 0.132D+01
 Coeff:      0.757D-03-0.393D-02 0.195D-01-0.261D-01-0.308D+00 0.132D+01
 Gap=     0.922 Goal=   None    Shift=    0.000
 RMSDP=2.14D-06 MaxDP=6.77D-06 DE=-4.67D-09 OVMax= 0.00D+00

 Cycle   7  Pass 1  IDiag  1:
 E= -109.748006750915     Delta-E=       -0.000000000274 Rises=F Damp=F
 DIIS: error= 3.87D-07 at cycle   7 NSaved=   7.
 NSaved= 7 IEnMin= 7 EnMin= -109.748006750915     IErMin= 7 ErrMin= 3.87D-07
 ErrMax= 3.87D-07  0.00D+00 EMaxC= 1.00D-01 BMatC= 2.73D-12 BMatP= 8.97D-11
 IDIUse=1 WtCom= 1.00D+00 WtEn= 0.00D+00
 Coeff-Com: -0.259D-03 0.143D-02-0.762D-02 0.128D-01 0.101D+00-0.549D+00
 Coeff-Com:  0.144D+01
 Coeff:     -0.259D-03 0.143D-02-0.762D-02 0.128D-01 0.101D+00-0.549D+00
 Coeff:      0.144D+01
 Gap=     0.922 Goal=   None    Shift=    0.000
 RMSDP=4.60D-07 MaxDP=1.73D-06 DE=-2.74D-10 OVMax= 0.00D+00

 Cycle   8  Pass 1  IDiag  1:
 E= -109.748006750925     Delta-E=       -0.000000000009 Rises=F Damp=F
 DIIS: error= 4.71D-08 at cycle   8 NSaved=   8.
 NSaved= 8 IEnMin= 8 EnMin= -109.748006750925     IErMin= 8 ErrMin= 4.71D-08
 ErrMax= 4.71D-08  0.00D+00 EMaxC= 1.00D-01 BMatC= 5.27D-14 BMatP= 2.73D-12
 IDIUse=1 WtCom= 1.00D+00 WtEn= 0.00D+00
 Coeff-Com:  0.879D-04-0.487D-03 0.261D-02-0.459D-02-0.323D-01 0.186D+00
 Coeff-Com: -0.576D+00 0.142D+01
 Coeff:      0.879D-04-0.487D-03 0.261D-02-0.459D-02-0.323D-01 0.186D+00
 Coeff:     -0.576D+00 0.142D+01
 Gap=     0.922 Goal=   None    Shift=    0.000
 RMSDP=6.40D-08 MaxDP=2.47D-07 DE=-9.49D-12 OVMax= 0.00D+00

 Cycle   9  Pass 1  IDiag  1:
 E= -109.748006750925     Delta-E=        0.000000000000 Rises=F Damp=F
 DIIS: error= 3.79D-09 at cycle   9 NSaved=   9.
 NSaved= 9 IEnMin= 9 EnMin= -109.748006750925     IErMin= 9 ErrMin= 3.79D-09
 ErrMax= 3.79D-09  0.00D+00 EMaxC= 1.00D-01 BMatC= 1.88D-16 BMatP= 5.27D-14
 IDIUse=1 WtCom= 1.00D+00 WtEn= 0.00D+00
 Coeff-Com: -0.174D-04 0.961D-04-0.515D-03 0.923D-03 0.617D-02-0.360D-01
 Coeff-Com:  0.114D+00-0.302D+00 0.122D+01
 Coeff:     -0.174D-04 0.961D-04-0.515D-03 0.923D-03 0.617D-02-0.360D-01
 Coeff:      0.114D+00-0.302D+00 0.122D+01
 Gap=     0.922 Goal=   None    Shift=    0.000
 RMSDP=2.13D-09 MaxDP=4.96D-09 DE=-1.71D-13 OVMax= 0.00D+00

 SCF Done:  E(RHF) =  -109.748006751     A.U. after    9 cycles
            NFock=  9  Conv=0.21D-08     -V/T= 2.0093
 KE= 1.087407414790D+02 PE=-3.394378583891D+02 EE= 8.006008391480D+01
 Leave Link  502 at Sat Feb 16 14:26:55 2019, MaxMem=   196608000 cpu:        15.9
 (Enter /cm/shared/c3ddb/gaussian/09.d01/g09/l508.exe)
 QCSCF skips out because SCF is already converged.
 Leave Link  508 at Sat Feb 16 14:26:55 2019, MaxMem=   196608000 cpu:         0.0
 (Enter /cm/shared/c3ddb/gaussian/09.d01/g09/l701.exe)
 Compute integral first derivatives.
 ... and contract with generalized density number  0.
 Leave Link  701 at Sat Feb 16 14:26:55 2019, MaxMem=   196608000 cpu:         3.1
 (Enter /cm/shared/c3ddb/gaussian/09.d01/g09/l702.exe)
 L702 exits ... SP integral derivatives will be done elsewhere.
 Leave Link  702 at Sat Feb 16 14:26:56 2019, MaxMem=   196608000 cpu:         0.1
 (Enter /cm/shared/c3ddb/gaussian/09.d01/g09/l703.exe)
 Compute integral first derivatives, UseDBF=F ICtDFT=           0.
 Integral derivatives from FoFJK, PRISM(SPDF).
 Calling FoFJK, ICntrl=      2127 FMM=F ISym2X=0 I1Cent= 0 IOpClX= 0 NMat=1 NMatS=1 NMatT=0.
 FoFJK:  IHMeth= 1 ICntrl=    2127 DoSepK=F KAlg= 0 I1Cent=   0 FoldK=F
 IRaf=         0 NMat=   1 IRICut=       1 DoRegI=T DoRafI=F ISym2E= 0.
 FoFCou: FMM=F IPFlag=           0 FMFlag=      100000 FMFlg1=         800
         NFxFlg=           0 DoJE=F BraDBF=F KetDBF=F FulRan=T
         wScrn=  0.000000 ICntrl=    2127 IOpCl=  0 I1Cent=           0 NGrid=           0
         NMat0=    1 NMatS0=      1 NMatT0=    0 NMatD0=    1 NMtDS0=    0 NMtDT0=    0
 Symmetry not used in FoFCou.
 Leave Link  703 at Sat Feb 16 14:26:56 2019, MaxMem=   196608000 cpu:         1.6
 (Enter /cm/shared/c3ddb/gaussian/09.d01/g09/l716.exe)
 Dipole        = 5.71228891D-08 8.86736463D-01-2.08786014D-06
 ***** Axes restored to original set *****
 -------------------------------------------------------------------
 Center     Atomic                   Forces (Hartrees/Bohr)
 Number     Number              X              Y              Z
 -------------------------------------------------------------------
      1        7           0.000266059   -0.000291174    0.001046808
      2        7          -0.000508966    0.000785228   -0.000612909
      3        1          -0.000470546   -0.001370776   -0.000478457
      4        1          -0.001069176    0.001177403   -0.000729584
      5        1           0.000550222   -0.000121752    0.001656494
      6        1           0.001232407   -0.000178928   -0.000882353
 -------------------------------------------------------------------
 Cartesian Forces:  Max     0.001656494 RMS     0.000859091
 Leave Link  716 at Sat Feb 16 14:26:56 2019, MaxMem=   196608000 cpu:         0.2
 (Enter /cm/shared/c3ddb/gaussian/09.d01/g09/l103.exe)

 GradGradGradGradGradGradGradGradGradGradGradGradGradGradGradGradGradGrad
 Berny optimization.
 Using GEDIIS/GDIIS optimizer.
 FormGI is forming the generalized inverse of G from B-inverse, IUseBI=4.
 Internal  Forces:  Max     0.001913203 RMS     0.001152735
 Search for a local minimum.
 Step number   2 out of a maximum of   25
 All quantities printed in internal units (Hartrees-Bohrs-Radians)
 RMS Force = .11527D-02 SwitMx=.10000D-02 MixMth= 1
 Mixed Optimization -- RFO/linear search
 Update second derivatives using D2CorX and points    1    2
 DE= -4.23D-03 DEPred=-4.10D-03 R= 1.03D+00
 TightC=F SS=  1.41D+00  RLast= 1.83D-01 DXNew= 5.0454D-01 5.4970D-01
 Trust test= 1.03D+00 RLast= 1.83D-01 DXMaxT set to 5.05D-01
 The second derivative matrix:
                          R1        R2        R3        R4        R5
           R1           0.49913
           R2          -0.01111   0.61715
           R3          -0.01474  -0.01905   0.61187
           R4          -0.01474  -0.00202   0.00122   0.61187
           R5          -0.01112  -0.00305  -0.00202  -0.01905   0.61715
           A1           0.06023   0.00920   0.00800   0.00092   0.00366
           A2           0.07665   0.00739  -0.00229  -0.01604  -0.00826
           A3          -0.01685   0.01396   0.01537   0.00107  -0.00049
           A4           0.07665  -0.00826  -0.01604  -0.00229   0.00739
           A5           0.06023   0.00366   0.00092   0.00800   0.00920
           A6          -0.01685  -0.00049   0.00107   0.01537   0.01396
           D1           0.00195  -0.01129  -0.01281   0.00952   0.01134
           D2          -0.02541  -0.00845  -0.00812  -0.00812  -0.00845
           D3           0.02931   0.00850   0.00483   0.00483   0.00850
           D4           0.00195   0.01134   0.00952  -0.01281  -0.01129
                          A1        A2        A3        A4        A5
           A1           0.26868
           A2          -0.02524   0.29369
           A3          -0.06071  -0.06530   0.08006
           A4           0.00024  -0.00868   0.00184   0.29369
           A5           0.03685   0.00024  -0.00989  -0.02524   0.26868
           A6          -0.00989   0.00184   0.00156  -0.06530  -0.06071
           D1          -0.00608  -0.00992  -0.02341   0.00896   0.00716
           D2          -0.00757  -0.00847  -0.02242  -0.00847  -0.00757
           D3           0.00866   0.00751   0.02150   0.00751   0.00866
           D4           0.00716   0.00896   0.02250  -0.00992  -0.00608
                          A6        D1        D2        D3        D4
           A6           0.08006
           D1           0.02250   0.03044
           D2          -0.02242   0.00077   0.03004
           D3           0.02150  -0.00015  -0.02850   0.02821
           D4          -0.02341  -0.02982   0.00077  -0.00015   0.03044
 ITU=  1  0
 Use linear search instead of GDIIS.
     Eigenvalues ---    0.00112   0.09056   0.09990   0.23706   0.24567
     Eigenvalues ---    0.32153   0.32186   0.55759   0.60184   0.61063
     Eigenvalues ---    0.63323   0.63643
 RFO step:  Lambda=-4.00004143D-05 EMin= 1.11740916D-03
 Quartic linear search produced a step of  0.09668.
 Iteration  1 RMS(Cart)=  0.02201364 RMS(Int)=  0.00038966
 Iteration  2 RMS(Cart)=  0.00031520 RMS(Int)=  0.00015940
 Iteration  3 RMS(Cart)=  0.00000005 RMS(Int)=  0.00015940
 ITry= 1 IFail=0 DXMaxC= 4.04D-02 DCOld= 1.00D+10 DXMaxT= 5.05D-01 DXLimC= 3.00D+00 Rises=F
 Variable       Old X    -DE/DX   Delta X   Delta X   Delta X     New X
                                 (Linear)    (Quad)   (Total)
    R1        2.75870   0.00119  -0.00495   0.00324  -0.00171   2.75699
    R2        1.95771   0.00116   0.00302  -0.00166   0.00136   1.95908
    R3        1.96292   0.00126   0.00352  -0.00219   0.00134   1.96426
    R4        1.96292   0.00126   0.00352  -0.00219   0.00134   1.96426
    R5        1.95771   0.00116   0.00302  -0.00166   0.00136   1.95908
    A1        1.83403   0.00079   0.00222   0.00284   0.00493   1.83896
    A2        1.89200   0.00191   0.00781   0.00089   0.00858   1.90058
    A3        1.81792   0.00022   0.00275   0.00416   0.00660   1.82452
    A4        1.89200   0.00191   0.00781   0.00089   0.00858   1.90058
    A5        1.83403   0.00079   0.00222   0.00284   0.00493   1.83896
    A6        1.81792   0.00022   0.00275   0.00416   0.00660   1.82452
    D1       -1.58202  -0.00007  -0.00129  -0.04658  -0.04787  -1.62989
    D2        2.76567  -0.00148  -0.00809  -0.05296  -0.06132   2.70435
    D3        0.35347   0.00133   0.00551  -0.04020  -0.03442   0.31905
    D4       -1.58202  -0.00007  -0.00129  -0.04658  -0.04787  -1.62989
         Item               Value     Threshold  Converged?
 Maximum Force            0.001913     0.000450     NO 
 RMS     Force            0.001153     0.000300     NO 
 Maximum Displacement     0.040390     0.001800     NO 
 RMS     Displacement     0.022031     0.001200     NO 
 Predicted change in Energy=-4.636425D-05
 Lowest energy point so far.  Saving SCF results.
 GradGradGradGradGradGradGradGradGradGradGradGradGradGradGradGradGradGrad

 Leave Link  103 at Sat Feb 16 14:26:59 2019, MaxMem=   196608000 cpu:        16.3
 (Enter /cm/shared/c3ddb/gaussian/09.d01/g09/l202.exe)
                          Input orientation:                          
 ---------------------------------------------------------------------
 Center     Atomic      Atomic             Coordinates (Angstroms)
 Number     Number       Type             X           Y           Z
 ---------------------------------------------------------------------
      1          7           0       -0.646842    0.016585   -0.337875
      2          7           0        0.628134    0.020653    0.371290
      3          1           0       -1.144432   -0.829202   -0.003523
      4          1           0       -1.224199    0.810844    0.003079
      5          1           0        0.532601    0.595172    1.232243
      6          1           0        1.275976    0.560801   -0.231441
 ---------------------------------------------------------------------
                    Distance matrix (angstroms):
                    1          2          3          4          5
     1  N    0.000000
     2  N    1.458936   0.000000
     3  H    1.036699   2.001181   0.000000
     4  H    1.039442   2.047222   1.641999   0.000000
     5  H    2.047222   1.039442   2.523569   2.154926   0.000000
     6  H    2.001181   1.036699   2.800434   2.523569   1.641999
                    6
     6  H    0.000000
 Stoichiometry    H4N2
 Framework group  C1[X(H4N2)]
 Deg. of freedom    12
 Full point group                 C1      NOp   1
 RotChk:  IX=0 Diff= 1.12D-03
 Largest Abelian subgroup         C1      NOp   1
 Largest concise Abelian subgroup C1      NOp   1
                         Standard orientation:                         
 ---------------------------------------------------------------------
 Center     Atomic      Atomic             Coordinates (Angstroms)
 Number     Number       Type             X           Y           Z
 ---------------------------------------------------------------------
      1          7           0       -0.720094   -0.083793   -0.116565
      2          7           0        0.720094   -0.083793    0.116565
      3          1           0       -1.147183   -0.300599    0.802856
      4          1           0       -1.027417    0.887149   -0.324562
      5          1           0        1.027417    0.887149    0.324561
      6          1           0        1.147183   -0.300599   -0.802856
 ---------------------------------------------------------------------
 Rotational constants (GHZ):    135.2316978     23.8446548     23.7231726
 Leave Link  202 at Sat Feb 16 14:26:59 2019, MaxMem=   196608000 cpu:         0.3
 (Enter /cm/shared/c3ddb/gaussian/09.d01/g09/l301.exe)
 Standard basis: STO-3G (5D, 7F)
 Ernie: Thresh=  0.10000D-02 Tol=  0.10000D-05 Strict=F.
 There are    14 symmetry adapted cartesian basis functions of A   symmetry.
 There are    14 symmetry adapted basis functions of A   symmetry.
    14 basis functions,    42 primitive gaussians,    14 cartesian basis functions
     9 alpha electrons        9 beta electrons
       nuclear repulsion energy        40.8659223308 Hartrees.
 IExCor=    0 DFT=F Ex=HF Corr=None ExCW=0 ScaHFX=  1.000000
 ScaDFX=  1.000000  1.000000  1.000000  1.000000 ScalE2=  1.000000  1.000000
 IRadAn=      0 IRanWt=     -1 IRanGd=            0 ICorTp=0 IEmpDi=  4
 NAtoms=    6 NActive=    6 NUniq=    6 SFac= 1.00D+00 NAtFMM=   60 NAOKFM=F Big=F
 Integral buffers will be    131072 words long.
 Raffenetti 1 integral format.
 Two-electron integral symmetry is turned on.
 Leave Link  301 at Sat Feb 16 14:26:59 2019, MaxMem=   196608000 cpu:         0.4
 (Enter /cm/shared/c3ddb/gaussian/09.d01/g09/l302.exe)
 NPDir=0 NMtPBC=     1 NCelOv=     1 NCel=       1 NClECP=     1 NCelD=      1
         NCelK=      1 NCelE2=     1 NClLst=     1 CellRange=     0.0.
 One-electron integrals computed using PRISM.
 NBasis=    14 RedAO= T EigKep=  2.75D-01  NBF=    14
 NBsUse=    14 1.00D-06 EigRej= -1.00D+00 NBFU=    14
 Leave Link  302 at Sat Feb 16 14:26:59 2019, MaxMem=   196608000 cpu:         2.2
 (Enter /cm/shared/c3ddb/gaussian/09.d01/g09/l303.exe)
 DipDrv:  MaxL=1.
 Leave Link  303 at Sat Feb 16 14:26:59 2019, MaxMem=   196608000 cpu:         0.6
 (Enter /cm/shared/c3ddb/gaussian/09.d01/g09/l401.exe)
 Initial guess from the checkpoint file:  "check.chk"
 B after Tr=     0.000000    0.000000    0.000000
         Rot=    1.000000   -0.000001    0.000121    0.000000 Ang=  -0.01 deg.
 Guess basis will be translated and rotated to current coordinates.
 JPrj=2 DoOrth=T DoCkMO=T.
 Generating alternative initial guess.
 ExpMin= 1.69D-01 ExpMax= 9.91D+01 ExpMxC= 9.91D+01 IAcc=1 IRadAn=         1 AccDes= 0.00D+00
 Harris functional with IExCor=  205 and IRadAn=       1 diagonalized for initial guess.
 HarFok:  IExCor=  205 AccDes= 0.00D+00 IRadAn=         1 IDoV= 1 UseB2=F ITyADJ=14
 ICtDFT=  3500011 ScaDFX=  1.000000  1.000000  1.000000  1.000000
 FoFCou: FMM=F IPFlag=           0 FMFlag=      100000 FMFlg1=           0
         NFxFlg=           0 DoJE=T BraDBF=F KetDBF=T FulRan=T
         wScrn=  0.000000 ICntrl=     500 IOpCl=  0 I1Cent=   200000004 NGrid=           0
         NMat0=    1 NMatS0=      1 NMatT0=    0 NMatD0=    1 NMtDS0=    0 NMtDT0=    0
 Petite list used in FoFCou.
 Harris En= -109.866609003697    
 Leave Link  401 at Sat Feb 16 14:27:01 2019, MaxMem=   196608000 cpu:        11.9
 (Enter /cm/shared/c3ddb/gaussian/09.d01/g09/l502.exe)
 Closed shell SCF:
 Using DIIS extrapolation, IDIIS=  1040.
 Integral symmetry usage will be decided dynamically.
 Keep R1 ints in memory in canonical form, NReq=819005.
 IVT=        7593 IEndB=        7593 NGot=   196608000 MDV=   196594843
 LenX=   196594843 LenY=   196593961
 Requested convergence on RMS density matrix=1.00D-08 within  64 cycles.
 Requested convergence on MAX density matrix=1.00D-06.
 Requested convergence on             energy=1.00D-06.
 No special actions if energy rises.
 FoFCou: FMM=F IPFlag=           0 FMFlag=           0 FMFlg1=           0
         NFxFlg=           0 DoJE=F BraDBF=F KetDBF=F FulRan=T
         wScrn=  0.000000 ICntrl=     600 IOpCl=  0 I1Cent=           0 NGrid=           0
         NMat0=    1 NMatS0=    105 NMatT0=    0 NMatD0=    1 NMtDS0=    0 NMtDT0=    0
 Symmetry not used in FoFCou.

 Cycle   1  Pass 1  IDiag  1:
 E= -109.747755108681    
 DIIS: error= 1.81D-03 at cycle   1 NSaved=   1.
 NSaved= 1 IEnMin= 1 EnMin= -109.747755108681     IErMin= 1 ErrMin= 1.81D-03
 ErrMax= 1.81D-03  0.00D+00 EMaxC= 1.00D-01 BMatC= 1.01D-04 BMatP= 1.01D-04
 IDIUse=3 WtCom= 9.82D-01 WtEn= 1.81D-02
 Coeff-Com:  0.100D+01
 Coeff-En:   0.100D+01
 Coeff:      0.100D+01
 Gap=     0.942 Goal=   None    Shift=    0.000
 GapD=    0.942 DampG=2.000 DampE=1.000 DampFc=2.0000 IDamp=-1.
 RMSDP=1.44D-03 MaxDP=5.93D-03              OVMax= 0.00D+00

 Cycle   2  Pass 1  IDiag  1:
 E= -109.748004121739     Delta-E=       -0.000249013058 Rises=F Damp=F
 DIIS: error= 7.60D-04 at cycle   2 NSaved=   2.
 NSaved= 2 IEnMin= 2 EnMin= -109.748004121739     IErMin= 2 ErrMin= 7.60D-04
 ErrMax= 7.60D-04  0.00D+00 EMaxC= 1.00D-01 BMatC= 1.49D-05 BMatP= 1.01D-04
 IDIUse=3 WtCom= 9.92D-01 WtEn= 7.60D-03
 Coeff-Com: -0.589D+00 0.159D+01
 Coeff-En:   0.000D+00 0.100D+01
 Coeff:     -0.584D+00 0.158D+01
 Gap=     0.917 Goal=   None    Shift=    0.000
 RMSDP=9.11D-04 MaxDP=3.58D-03 DE=-2.49D-04 OVMax= 0.00D+00

 Cycle   3  Pass 1  IDiag  1:
 E= -109.748049486233     Delta-E=       -0.000045364494 Rises=F Damp=F
 DIIS: error= 7.79D-05 at cycle   3 NSaved=   3.
 NSaved= 3 IEnMin= 3 EnMin= -109.748049486233     IErMin= 3 ErrMin= 7.79D-05
 ErrMax= 7.79D-05  0.00D+00 EMaxC= 1.00D-01 BMatC= 1.19D-07 BMatP= 1.49D-05
 IDIUse=1 WtCom= 1.00D+00 WtEn= 0.00D+00
 Coeff-Com:  0.124D+00-0.370D+00 0.125D+01
 Coeff:      0.124D+00-0.370D+00 0.125D+01
 Gap=     0.917 Goal=   None    Shift=    0.000
 RMSDP=7.11D-05 MaxDP=2.58D-04 DE=-4.54D-05 OVMax= 0.00D+00

 Cycle   4  Pass 1  IDiag  1:
 E= -109.748049837928     Delta-E=       -0.000000351695 Rises=F Damp=F
 DIIS: error= 2.43D-05 at cycle   4 NSaved=   4.
 NSaved= 4 IEnMin= 4 EnMin= -109.748049837928     IErMin= 4 ErrMin= 2.43D-05
 ErrMax= 2.43D-05  0.00D+00 EMaxC= 1.00D-01 BMatC= 5.38D-09 BMatP= 1.19D-07
 IDIUse=1 WtCom= 1.00D+00 WtEn= 0.00D+00
 Coeff-Com:  0.231D-01-0.592D-01-0.127D+00 0.116D+01
 Coeff:      0.231D-01-0.592D-01-0.127D+00 0.116D+01
 Gap=     0.917 Goal=   None    Shift=    0.000
 RMSDP=1.52D-05 MaxDP=4.43D-05 DE=-3.52D-07 OVMax= 0.00D+00

 Cycle   5  Pass 1  IDiag  1:
 E= -109.748049852910     Delta-E=       -0.000000014982 Rises=F Damp=F
 DIIS: error= 2.12D-06 at cycle   5 NSaved=   5.
 NSaved= 5 IEnMin= 5 EnMin= -109.748049852910     IErMin= 5 ErrMin= 2.12D-06
 ErrMax= 2.12D-06  0.00D+00 EMaxC= 1.00D-01 BMatC= 6.07D-11 BMatP= 5.38D-09
 IDIUse=1 WtCom= 1.00D+00 WtEn= 0.00D+00
 Coeff-Com: -0.692D-02 0.187D-01 0.337D-02-0.226D+00 0.121D+01
 Coeff:     -0.692D-02 0.187D-01 0.337D-02-0.226D+00 0.121D+01
 Gap=     0.917 Goal=   None    Shift=    0.000
 RMSDP=1.46D-06 MaxDP=4.93D-06 DE=-1.50D-08 OVMax= 0.00D+00

 Cycle   6  Pass 1  IDiag  1:
 E= -109.748049853055     Delta-E=       -0.000000000145 Rises=F Damp=F
 DIIS: error= 3.02D-07 at cycle   6 NSaved=   6.
 NSaved= 6 IEnMin= 6 EnMin= -109.748049853055     IErMin= 6 ErrMin= 3.02D-07
 ErrMax= 3.02D-07  0.00D+00 EMaxC= 1.00D-01 BMatC= 1.32D-12 BMatP= 6.07D-11
 IDIUse=1 WtCom= 1.00D+00 WtEn= 0.00D+00
 Coeff-Com:  0.104D-02-0.285D-02 0.478D-03 0.317D-01-0.257D+00 0.123D+01
 Coeff:      0.104D-02-0.285D-02 0.478D-03 0.317D-01-0.257D+00 0.123D+01
 Gap=     0.917 Goal=   None    Shift=    0.000
 RMSDP=2.72D-07 MaxDP=1.17D-06 DE=-1.45D-10 OVMax= 0.00D+00

 Cycle   7  Pass 1  IDiag  1:
 E= -109.748049853059     Delta-E=       -0.000000000004 Rises=F Damp=F
 DIIS: error= 7.54D-08 at cycle   7 NSaved=   7.
 NSaved= 7 IEnMin= 7 EnMin= -109.748049853059     IErMin= 7 ErrMin= 7.54D-08
 ErrMax= 7.54D-08  0.00D+00 EMaxC= 1.00D-01 BMatC= 9.33D-14 BMatP= 1.32D-12
 IDIUse=1 WtCom= 1.00D+00 WtEn= 0.00D+00
 Coeff-Com: -0.350D-03 0.972D-03-0.475D-03-0.973D-02 0.102D+00-0.678D+00
 Coeff-Com:  0.158D+01
 Coeff:     -0.350D-03 0.972D-03-0.475D-03-0.973D-02 0.102D+00-0.678D+00
 Coeff:      0.158D+01
 Gap=     0.917 Goal=   None    Shift=    0.000
 RMSDP=9.38D-08 MaxDP=3.75D-07 DE=-4.18D-12 OVMax= 0.00D+00

 Cycle   8  Pass 1  IDiag  1:
 E= -109.748049853059     Delta-E=        0.000000000000 Rises=F Damp=F
 DIIS: error= 6.45D-09 at cycle   8 NSaved=   8.
 NSaved= 8 IEnMin= 8 EnMin= -109.748049853059     IErMin= 8 ErrMin= 6.45D-09
 ErrMax= 6.45D-09  0.00D+00 EMaxC= 1.00D-01 BMatC= 6.29D-16 BMatP= 9.33D-14
 IDIUse=1 WtCom= 1.00D+00 WtEn= 0.00D+00
 Coeff-Com:  0.901D-04-0.251D-03 0.117D-03 0.254D-02-0.266D-01 0.178D+00
 Coeff-Com: -0.457D+00 0.130D+01
 Coeff:      0.901D-04-0.251D-03 0.117D-03 0.254D-02-0.266D-01 0.178D+00
 Coeff:     -0.457D+00 0.130D+01
 Gap=     0.917 Goal=   None    Shift=    0.000
 RMSDP=5.59D-09 MaxDP=1.66D-08 DE=-3.13D-13 OVMax= 0.00D+00

 SCF Done:  E(RHF) =  -109.748049853     A.U. after    8 cycles
            NFock=  8  Conv=0.56D-08     -V/T= 2.0093
 KE= 1.087336804494D+02 PE=-3.394040741116D+02 EE= 8.005642147831D+01
 Leave Link  502 at Sat Feb 16 14:27:03 2019, MaxMem=   196608000 cpu:         9.1
 (Enter /cm/shared/c3ddb/gaussian/09.d01/g09/l508.exe)
 QCSCF skips out because SCF is already converged.
 Leave Link  508 at Sat Feb 16 14:27:03 2019, MaxMem=   196608000 cpu:         0.0
 (Enter /cm/shared/c3ddb/gaussian/09.d01/g09/l701.exe)
 Compute integral first derivatives.
 ... and contract with generalized density number  0.
 Leave Link  701 at Sat Feb 16 14:27:03 2019, MaxMem=   196608000 cpu:         2.9
 (Enter /cm/shared/c3ddb/gaussian/09.d01/g09/l702.exe)
 L702 exits ... SP integral derivatives will be done elsewhere.
 Leave Link  702 at Sat Feb 16 14:27:03 2019, MaxMem=   196608000 cpu:         0.1
 (Enter /cm/shared/c3ddb/gaussian/09.d01/g09/l703.exe)
 Compute integral first derivatives, UseDBF=F ICtDFT=           0.
 Integral derivatives from FoFJK, PRISM(SPDF).
 Calling FoFJK, ICntrl=      2127 FMM=F ISym2X=0 I1Cent= 0 IOpClX= 0 NMat=1 NMatS=1 NMatT=0.
 FoFJK:  IHMeth= 1 ICntrl=    2127 DoSepK=F KAlg= 0 I1Cent=   0 FoldK=F
 IRaf=         0 NMat=   1 IRICut=       1 DoRegI=T DoRafI=F ISym2E= 0.
 FoFCou: FMM=F IPFlag=           0 FMFlag=      100000 FMFlg1=         800
         NFxFlg=           0 DoJE=F BraDBF=F KetDBF=F FulRan=T
         wScrn=  0.000000 ICntrl=    2127 IOpCl=  0 I1Cent=           0 NGrid=           0
         NMat0=    1 NMatS0=      1 NMatT0=    0 NMatD0=    1 NMtDS0=    0 NMtDT0=    0
 Symmetry not used in FoFCou.
 Leave Link  703 at Sat Feb 16 14:27:04 2019, MaxMem=   196608000 cpu:         1.6
 (Enter /cm/shared/c3ddb/gaussian/09.d01/g09/l716.exe)
 Dipole        = 1.07563194D-08 8.60579929D-01-1.28035147D-07
 ***** Axes restored to original set *****
 -------------------------------------------------------------------
 Center     Atomic                   Forces (Hartrees/Bohr)
 Number     Number              X              Y              Z
 -------------------------------------------------------------------
      1        7          -0.000316039   -0.000071111    0.000139632
      2        7           0.000214990    0.000276661    0.000040866
      3        1          -0.000003887    0.000055312    0.000008266
      4        1           0.000112329   -0.000037567   -0.000203343
      5        1           0.000020219   -0.000232059   -0.000033416
      6        1          -0.000027612    0.000008764    0.000047997
 -------------------------------------------------------------------
 Cartesian Forces:  Max     0.000316039 RMS     0.000142577
 Leave Link  716 at Sat Feb 16 14:27:04 2019, MaxMem=   196608000 cpu:         0.2
 (Enter /cm/shared/c3ddb/gaussian/09.d01/g09/l103.exe)

 GradGradGradGradGradGradGradGradGradGradGradGradGradGradGradGradGradGrad
 Berny optimization.
 Using GEDIIS/GDIIS optimizer.
 FormGI is forming the generalized inverse of G from B-inverse, IUseBI=4.
 Internal  Forces:  Max     0.000208521 RMS     0.000110075
 Search for a local minimum.
 Step number   3 out of a maximum of   25
 All quantities printed in internal units (Hartrees-Bohrs-Radians)
 RMS Force = .11008D-03 SwitMx=.10000D-02 MixMth= 2
 Mixed Optimization -- En-DIIS/RFO-DIIS
 Update second derivatives using D2CorX and points    1    2    3
 DE= -4.31D-05 DEPred=-4.64D-05 R= 9.30D-01
 TightC=F SS=  1.41D+00  RLast= 9.91D-02 DXNew= 8.4853D-01 2.9729D-01
 Trust test= 9.30D-01 RLast= 9.91D-02 DXMaxT set to 5.05D-01
 The second derivative matrix:
                          R1        R2        R3        R4        R5
           R1           0.49681
           R2          -0.01353   0.61639
           R3          -0.01663  -0.01856   0.61395
           R4          -0.01663  -0.00153   0.00330   0.61395
           R5          -0.01353  -0.00382  -0.00153  -0.01856   0.61639
           A1           0.05817   0.00737   0.00669  -0.00040   0.00182
           A2           0.07129   0.00290  -0.00540  -0.01915  -0.01275
           A3          -0.01882   0.01127   0.01259  -0.00170  -0.00319
           A4           0.07129  -0.01275  -0.01915  -0.00540   0.00290
           A5           0.05817   0.00182  -0.00040   0.00669   0.00737
           A6          -0.01882  -0.00319  -0.00170   0.01260   0.01127
           D1           0.00155  -0.01220  -0.01397   0.00837   0.01043
           D2          -0.02319  -0.00779  -0.00880  -0.00880  -0.00779
           D3           0.02630   0.00602   0.00321   0.00321   0.00602
           D4           0.00155   0.01043   0.00837  -0.01397  -0.01220
                          A1        A2        A3        A4        A5
           A1           0.26694
           A2          -0.02969   0.28242
           A3          -0.06246  -0.06981   0.07905
           A4          -0.00421  -0.01995  -0.00268   0.28242
           A5           0.03510  -0.00421  -0.01164  -0.02969   0.26694
           A6          -0.01164  -0.00268   0.00054  -0.06981  -0.06246
           D1          -0.00647  -0.01093  -0.02336   0.00795   0.00677
           D2          -0.00583  -0.00410  -0.01966  -0.00410  -0.00583
           D3           0.00614   0.00112   0.01885   0.00112   0.00614
           D4           0.00677   0.00794   0.02255  -0.01093  -0.00647
                          A6        D1        D2        D3        D4
           A6           0.07905
           D1           0.02255   0.03062
           D2          -0.01966   0.00175   0.02966
           D3           0.01885  -0.00078  -0.02616   0.02460
           D4          -0.02336  -0.02965   0.00175  -0.00078   0.03062
 ITU=  1  1  0
 Use linear search instead of GDIIS.
     Eigenvalues ---    0.00146   0.07511   0.09984   0.23262   0.24535
     Eigenvalues ---    0.31915   0.32139   0.54377   0.60183   0.61503
     Eigenvalues ---    0.63323   0.63710
 RFO step:  Lambda=-2.47370541D-05 EMin= 1.46252025D-03
 Quartic linear search produced a step of -0.12114.
 Iteration  1 RMS(Cart)=  0.02851887 RMS(Int)=  0.00051803
 Iteration  2 RMS(Cart)=  0.00053956 RMS(Int)=  0.00000054
 Iteration  3 RMS(Cart)=  0.00000019 RMS(Int)=  0.00000052
 ITry= 1 IFail=0 DXMaxC= 5.32D-02 DCOld= 1.00D+10 DXMaxT= 5.05D-01 DXLimC= 3.00D+00 Rises=F
 Variable       Old X    -DE/DX   Delta X   Delta X   Delta X     New X
                                 (Linear)    (Quad)   (Total)
    R1        2.75699   0.00021   0.00021  -0.00216  -0.00195   2.75503
    R2        1.95908  -0.00004  -0.00017   0.00034   0.00017   1.95925
    R3        1.96426  -0.00016  -0.00016   0.00102   0.00085   1.96512
    R4        1.96426  -0.00016  -0.00016   0.00102   0.00085   1.96512
    R5        1.95908  -0.00004  -0.00017   0.00034   0.00017   1.95925
    A1        1.83896   0.00003  -0.00060   0.00186   0.00126   1.84022
    A2        1.90058   0.00012  -0.00104   0.00452   0.00348   1.90406
    A3        1.82452   0.00003  -0.00080   0.00380   0.00300   1.82753
    A4        1.90058   0.00012  -0.00104   0.00452   0.00348   1.90406
    A5        1.83896   0.00003  -0.00060   0.00186   0.00126   1.84022
    A6        1.82452   0.00003  -0.00080   0.00380   0.00300   1.82753
    D1       -1.62989   0.00009   0.00580   0.06002   0.06582  -1.56407
    D2        2.70435   0.00000   0.00743   0.05284   0.06027   2.76462
    D3        0.31905   0.00019   0.00417   0.06720   0.07137   0.39042
    D4       -1.62989   0.00009   0.00580   0.06002   0.06582  -1.56407
         Item               Value     Threshold  Converged?
 Maximum Force            0.000209     0.000450     YES
 RMS     Force            0.000110     0.000300     YES
 Maximum Displacement     0.053204     0.001800     NO 
 RMS     Displacement     0.028570     0.001200     NO 
 Predicted change in Energy=-1.333994D-05
 Lowest energy point so far.  Saving SCF results.
 GradGradGradGradGradGradGradGradGradGradGradGradGradGradGradGradGradGrad

 Leave Link  103 at Sat Feb 16 14:27:07 2019, MaxMem=   196608000 cpu:        17.7
 (Enter /cm/shared/c3ddb/gaussian/09.d01/g09/l202.exe)
                          Input orientation:                          
 ---------------------------------------------------------------------
 Center     Atomic      Atomic             Coordinates (Angstroms)
 Number     Number       Type             X           Y           Z
 ---------------------------------------------------------------------
      1          7           0       -0.645858    0.006892   -0.338469
      2          7           0        0.632376    0.019715    0.362550
      3          1           0       -1.150309   -0.823819    0.022613
      4          1           0       -1.214591    0.818604   -0.023752
      5          1           0        0.533018    0.567018    1.241167
      6          1           0        1.266601    0.586442   -0.230334
 ---------------------------------------------------------------------
                    Distance matrix (angstroms):
                    1          2          3          4          5
     1  N    0.000000
     2  N    1.457901   0.000000
     3  H    1.036789   2.001268   0.000000
     4  H    1.039894   2.049083   1.644334   0.000000
[...]
 RMSDP=4.90D-05 MaxDP=1.40D-04 DE=-2.07D-05 OVMax= 0.00D+00

 Cycle   4  Pass 1  IDiag  1:
 E= -109.748056976010     Delta-E=       -0.000000136935 Rises=F Damp=F
 DIIS: error= 6.57D-06 at cycle   4 NSaved=   4.
 NSaved= 4 IEnMin= 4 EnMin= -109.748056976010     IErMin= 4 ErrMin= 6.57D-06
 ErrMax= 6.57D-06  0.00D+00 EMaxC= 1.00D-01 BMatC= 4.28D-10 BMatP= 4.63D-08
 IDIUse=1 WtCom= 1.00D+00 WtEn= 0.00D+00
 Coeff-Com: -0.221D-02 0.731D-02-0.776D-01 0.107D+01
 Coeff:     -0.221D-02 0.731D-02-0.776D-01 0.107D+01
 Gap=     0.919 Goal=   None    Shift=    0.000
 RMSDP=3.48D-06 MaxDP=1.12D-05 DE=-1.37D-07 OVMax= 0.00D+00

 Cycle   5  Pass 1  IDiag  1:
 E= -109.748056977037     Delta-E=       -0.000000001026 Rises=F Damp=F
 DIIS: error= 8.77D-07 at cycle   5 NSaved=   5.
 NSaved= 5 IEnMin= 5 EnMin= -109.748056977037     IErMin= 5 ErrMin= 8.77D-07
 ErrMax= 8.77D-07  0.00D+00 EMaxC= 1.00D-01 BMatC= 1.65D-11 BMatP= 4.28D-10
 IDIUse=1 WtCom= 1.00D+00 WtEn= 0.00D+00
 Coeff-Com: -0.956D-02 0.258D-01-0.449D-01-0.116D+00 0.114D+01
 Coeff:     -0.956D-02 0.258D-01-0.449D-01-0.116D+00 0.114D+01
 Gap=     0.919 Goal=   None    Shift=    0.000
 RMSDP=6.42D-07 MaxDP=2.46D-06 DE=-1.03D-09 OVMax= 0.00D+00

 Cycle   6  Pass 1  IDiag  1:
 E= -109.748056977071     Delta-E=       -0.000000000034 Rises=F Damp=F
 DIIS: error= 1.05D-07 at cycle   6 NSaved=   6.
 NSaved= 6 IEnMin= 6 EnMin= -109.748056977071     IErMin= 6 ErrMin= 1.05D-07
 ErrMax= 1.05D-07  0.00D+00 EMaxC= 1.00D-01 BMatC= 2.44D-13 BMatP= 1.65D-11
 IDIUse=1 WtCom= 1.00D+00 WtEn= 0.00D+00
 Coeff-Com:  0.113D-02-0.304D-02 0.575D-02 0.105D-01-0.194D+00 0.118D+01
 Coeff:      0.113D-02-0.304D-02 0.575D-02 0.105D-01-0.194D+00 0.118D+01
 Gap=     0.919 Goal=   None    Shift=    0.000
 RMSDP=9.34D-08 MaxDP=4.30D-07 DE=-3.44D-11 OVMax= 0.00D+00

 Cycle   7  Pass 1  IDiag  1:
 E= -109.748056977072     Delta-E=       -0.000000000001 Rises=F Damp=F
 DIIS: error= 2.58D-08 at cycle   7 NSaved=   7.
 NSaved= 7 IEnMin= 7 EnMin= -109.748056977072     IErMin= 7 ErrMin= 2.58D-08
 ErrMax= 2.58D-08  0.00D+00 EMaxC= 1.00D-01 BMatC= 1.41D-14 BMatP= 2.44D-13
 IDIUse=1 WtCom= 1.00D+00 WtEn= 0.00D+00
 Coeff-Com: -0.308D-03 0.835D-03-0.166D-02-0.238D-02 0.659D-01-0.570D+00
 Coeff-Com:  0.151D+01
 Coeff:     -0.308D-03 0.835D-03-0.166D-02-0.238D-02 0.659D-01-0.570D+00
 Coeff:      0.151D+01
 Gap=     0.919 Goal=   None    Shift=    0.000
 RMSDP=3.08D-08 MaxDP=1.05D-07 DE=-5.68D-13 OVMax= 0.00D+00

 Cycle   8  Pass 1  IDiag  1:
 E= -109.748056977072     Delta-E=        0.000000000000 Rises=F Damp=F
 DIIS: error= 2.75D-09 at cycle   8 NSaved=   8.
 NSaved= 8 IEnMin= 8 EnMin= -109.748056977072     IErMin= 8 ErrMin= 2.75D-09
 ErrMax= 2.75D-09  0.00D+00 EMaxC= 1.00D-01 BMatC= 1.77D-16 BMatP= 1.41D-14
 IDIUse=1 WtCom= 1.00D+00 WtEn= 0.00D+00
 Coeff-Com:  0.944D-04-0.255D-03 0.506D-03 0.866D-03-0.225D-01 0.202D+00
 Coeff-Com: -0.589D+00 0.141D+01
 Coeff:      0.944D-04-0.255D-03 0.506D-03 0.866D-03-0.225D-01 0.202D+00
 Coeff:     -0.589D+00 0.141D+01
 Gap=     0.919 Goal=   None    Shift=    0.000
 RMSDP=3.11D-09 MaxDP=7.70D-09 DE=-1.71D-13 OVMax= 0.00D+00

 SCF Done:  E(RHF) =  -109.748056977     A.U. after    8 cycles
            NFock=  8  Conv=0.31D-08     -V/T= 2.0093
 KE= 1.087323892946D+02 PE=-3.394107789620D+02 EE= 8.005919446574D+01
 Leave Link  502 at Sat Feb 16 14:27:20 2019, MaxMem=   196608000 cpu:        13.1
 (Enter /cm/shared/c3ddb/gaussian/09.d01/g09/l508.exe)
 QCSCF skips out because SCF is already converged.
 Leave Link  508 at Sat Feb 16 14:27:20 2019, MaxMem=   196608000 cpu:         0.0
 (Enter /cm/shared/c3ddb/gaussian/09.d01/g09/l701.exe)
 Compute integral first derivatives.
 ... and contract with generalized density number  0.
 Leave Link  701 at Sat Feb 16 14:27:21 2019, MaxMem=   196608000 cpu:         3.2
 (Enter /cm/shared/c3ddb/gaussian/09.d01/g09/l702.exe)
 L702 exits ... SP integral derivatives will be done elsewhere.
 Leave Link  702 at Sat Feb 16 14:27:21 2019, MaxMem=   196608000 cpu:         0.1
 (Enter /cm/shared/c3ddb/gaussian/09.d01/g09/l703.exe)
 Compute integral first derivatives, UseDBF=F ICtDFT=           0.
 Integral derivatives from FoFJK, PRISM(SPDF).
 Calling FoFJK, ICntrl=      2127 FMM=F ISym2X=0 I1Cent= 0 IOpClX= 0 NMat=1 NMatS=1 NMatT=0.
 FoFJK:  IHMeth= 1 ICntrl=    2127 DoSepK=F KAlg= 0 I1Cent=   0 FoldK=F
 IRaf=         0 NMat=   1 IRICut=       1 DoRegI=T DoRafI=F ISym2E= 0.
 FoFCou: FMM=F IPFlag=           0 FMFlag=      100000 FMFlg1=         800
         NFxFlg=           0 DoJE=F BraDBF=F KetDBF=F FulRan=T
         wScrn=  0.000000 ICntrl=    2127 IOpCl=  0 I1Cent=           0 NGrid=           0
         NMat0=    1 NMatS0=      1 NMatT0=    0 NMatD0=    1 NMtDS0=    0 NMtDT0=    0
 Symmetry not used in FoFCou.
 Leave Link  703 at Sat Feb 16 14:27:21 2019, MaxMem=   196608000 cpu:         1.5
 (Enter /cm/shared/c3ddb/gaussian/09.d01/g09/l716.exe)
 Dipole        = 1.55036872D-09 8.74184651D-01-3.34050123D-08
 ***** Axes restored to original set *****
 -------------------------------------------------------------------
 Center     Atomic                   Forces (Hartrees/Bohr)
 Number     Number              X              Y              Z
 -------------------------------------------------------------------
      1        7           0.000049482   -0.000004355    0.000043123
      2        7          -0.000053969    0.000013482   -0.000035108
      3        1          -0.000010604   -0.000014867   -0.000001909
      4        1          -0.000020930    0.000012603   -0.000023627
      5        1           0.000019882   -0.000010471    0.000025499
      6        1           0.000016138    0.000003608   -0.000007977
 -------------------------------------------------------------------
 Cartesian Forces:  Max     0.000053969 RMS     0.000025428
 Leave Link  716 at Sat Feb 16 14:27:21 2019, MaxMem=   196608000 cpu:         0.2
 (Enter /cm/shared/c3ddb/gaussian/09.d01/g09/l103.exe)

 GradGradGradGradGradGradGradGradGradGradGradGradGradGradGradGradGradGrad
 Berny optimization.
 Using GEDIIS/GDIIS optimizer.
 FormGI is forming the generalized inverse of G from B-inverse, IUseBI=4.
 Internal  Forces:  Max     0.000050938 RMS     0.000023234
 Search for a local minimum.
 Step number   5 out of a maximum of   25
 All quantities printed in internal units (Hartrees-Bohrs-Radians)
 RMS Force = .23234D-04 SwitMx=.10000D-02 MixMth= 2
 Mixed Optimization -- En-DIIS/RFO-DIIS
 Swapping is turned off.
 Update second derivatives using D2CorX and points    1    2    3    4    5
 DE= -7.24D-06 DEPred=-7.99D-06 R= 9.06D-01
 TightC=F SS=  1.41D+00  RLast= 6.59D-02 DXNew= 4.2426D-01 1.9784D-01
 Trust test= 9.06D-01 RLast= 6.59D-02 DXMaxT set to 2.52D-01
 The second derivative matrix:
                          R1        R2        R3        R4        R5
           R1           0.49569
           R2          -0.00582   0.61110
           R3          -0.00764  -0.02609   0.60397
           R4          -0.00764  -0.00906  -0.00667   0.60397
           R5          -0.00582  -0.00910  -0.00906  -0.02609   0.61110
           A1           0.05464   0.01140   0.01149   0.00441   0.00585
           A2           0.07040   0.00761  -0.00108  -0.01482  -0.00804
           A3          -0.02242   0.01489   0.01656   0.00226   0.00043
           A4           0.07040  -0.00804  -0.01482  -0.00108   0.00761
           A5           0.05464   0.00585   0.00441   0.01149   0.01140
           A6          -0.02242   0.00043   0.00226   0.01656   0.01489
           D1           0.00189  -0.01101  -0.01294   0.00939   0.01162
           D2          -0.02595  -0.00911  -0.00995  -0.00995  -0.00911
           D3           0.02972   0.00972   0.00640   0.00640   0.00972
           D4           0.00189   0.01162   0.00939  -0.01294  -0.01101
                          A1        A2        A3        A4        A5
           A1           0.26508
           A2          -0.03015   0.28615
           A3          -0.06369  -0.06891   0.07829
           A4          -0.00467  -0.01622  -0.00178   0.28615
           A5           0.03325  -0.00467  -0.01287  -0.03015   0.26508
           A6          -0.01287  -0.00178  -0.00021  -0.06891  -0.06369
           D1          -0.00655  -0.00992  -0.02319   0.00896   0.00670
           D2          -0.00579  -0.00518  -0.01956  -0.00518  -0.00579
           D3           0.00594   0.00421   0.01909   0.00421   0.00594
           D4           0.00670   0.00896   0.02273  -0.00992  -0.00655
                          A6        D1        D2        D3        D4
           A6           0.07829
           D1           0.02273   0.03094
           D2          -0.01956   0.00125   0.03141
           D3           0.01909   0.00037  -0.02890   0.02964
           D4          -0.02319  -0.02932   0.00125   0.00037   0.03094
 ITU=  1 -1  1  1  0
     Eigenvalues ---    0.00312   0.07861   0.09983   0.23421   0.24531
     Eigenvalues ---    0.32048   0.32138   0.55310   0.57722   0.60183
     Eigenvalues ---    0.63323   0.63557
 En-DIIS/RFO-DIIS IScMMF=        0 using points:     5    4    3
 RFO step:  Lambda=-2.10614507D-08.
 NNeg= 0 NP= 3 Switch=  2.50D-03 Rises=F DC= -1.14D-07 SmlDif=  1.00D-05
 RMS Error=  0.7871091872D-04 NUsed= 3 EDIIS=F
 DidBck=F Rises=F RFO-DIIS coefs:    0.86491    0.09491    0.04018
 Iteration  1 RMS(Cart)=  0.00077241 RMS(Int)=  0.00000044
 Iteration  2 RMS(Cart)=  0.00000042 RMS(Int)=  0.00000018
 ITry= 1 IFail=0 DXMaxC= 1.55D-03 DCOld= 1.00D+10 DXMaxT= 2.52D-01 DXLimC= 3.00D+00 Rises=F
 Variable       Old X    -DE/DX   Delta X   Delta X   Delta X     New X
                                 (Linear)    (Quad)   (Total)
    R1        2.75635  -0.00002  -0.00010  -0.00011  -0.00021   2.75614
    R2        1.95880   0.00002   0.00005  -0.00005   0.00001   1.95881
    R3        1.96425   0.00001   0.00008  -0.00005   0.00003   1.96428
    R4        1.96425   0.00001   0.00008  -0.00005   0.00003   1.96428
    R5        1.95880   0.00002   0.00005  -0.00005   0.00001   1.95881
    A1        1.83944   0.00001   0.00005   0.00007   0.00013   1.83957
    A2        1.90163   0.00005   0.00019   0.00010   0.00029   1.90192
    A3        1.82559   0.00000   0.00014  -0.00001   0.00014   1.82572
    A4        1.90163   0.00005   0.00019   0.00010   0.00029   1.90192
    A5        1.83944   0.00001   0.00005   0.00007   0.00013   1.83957
    A6        1.82559   0.00000   0.00014  -0.00001   0.00014   1.82572
    D1       -1.59685   0.00000   0.00178  -0.00007   0.00172  -1.59514
    D2        2.73549  -0.00002   0.00151  -0.00014   0.00137   2.73686
    D3        0.35399   0.00003   0.00205   0.00001   0.00206   0.35604
    D4       -1.59685   0.00000   0.00178  -0.00007   0.00172  -1.59514
         Item               Value     Threshold  Converged?
 Maximum Force            0.000051     0.000450     YES
 RMS     Force            0.000023     0.000300     YES
 Maximum Displacement     0.001546     0.001800     YES
 RMS     Displacement     0.000773     0.001200     YES
 Predicted change in Energy=-4.625003D-08
 Optimization completed.
    -- Stationary point found.
                           ----------------------------
                           !   Optimized Parameters   !
                           ! (Angstroms and Degrees)  !
 --------------------------                            --------------------------
 ! Name  Definition              Value          Derivative Info.                !
 --------------------------------------------------------------------------------
 ! R1    R(1,2)                  1.4586         -DE/DX =    0.0                 !
 ! R2    R(1,3)                  1.0366         -DE/DX =    0.0                 !
 ! R3    R(1,4)                  1.0394         -DE/DX =    0.0                 !
 ! R4    R(2,5)                  1.0394         -DE/DX =    0.0                 !
 ! R5    R(2,6)                  1.0366         -DE/DX =    0.0                 !
 ! A1    A(2,1,3)              105.3922         -DE/DX =    0.0                 !
 ! A2    A(2,1,4)              108.9552         -DE/DX =    0.0001              !
 ! A3    A(3,1,4)              104.5985         -DE/DX =    0.0                 !
 ! A4    A(1,2,5)              108.9552         -DE/DX =    0.0001              !
 ! A5    A(1,2,6)              105.3922         -DE/DX =    0.0                 !
 ! A6    A(5,2,6)              104.5985         -DE/DX =    0.0                 !
 ! D1    D(3,1,2,5)            -91.493          -DE/DX =    0.0                 !
 ! D2    D(3,1,2,6)            156.732          -DE/DX =    0.0                 !
 ! D3    D(4,1,2,5)             20.2819         -DE/DX =    0.0                 !
 ! D4    D(4,1,2,6)            -91.493          -DE/DX =    0.0                 !
 --------------------------------------------------------------------------------
 Lowest energy point so far.  Saving SCF results.
 GradGradGradGradGradGradGradGradGradGradGradGradGradGradGradGradGradGrad

 Largest change from initial coordinates is atom    5       0.052 Angstoms.
 Leave Link  103 at Sat Feb 16 14:27:23 2019, MaxMem=   196608000 cpu:        10.2
 (Enter /cm/shared/c3ddb/gaussian/09.d01/g09/l202.exe)
                          Input orientation:                          
 ---------------------------------------------------------------------
 Center     Atomic      Atomic             Coordinates (Angstroms)
 Number     Number       Type             X           Y           Z
 ---------------------------------------------------------------------
      1          7           0       -0.646325    0.011618   -0.338415
      2          7           0        0.630399    0.019961    0.366860
      3          1           0       -1.147462   -0.826315    0.009683
      4          1           0       -1.218809    0.814573   -0.009854
      5          1           0        0.532232    0.581230    1.236209
      6          1           0        1.271203    0.573785   -0.230710
 ---------------------------------------------------------------------
                    Distance matrix (angstroms):
                    1          2          3          4          5
     1  N    0.000000
     2  N    1.458598   0.000000
     3  H    1.036552   2.001137   0.000000
     4  H    1.039436   2.047656   1.642555   0.000000
     5  H    2.047656   1.039436   2.511358   2.161774   0.000000
     6  H    2.001137   1.036552   2.804997   2.511358   1.642555
                    6
     6  H    0.000000
 Stoichiometry    H4N2
 Framework group  C1[X(H4N2)]
 Deg. of freedom    12
 Full point group                 C1      NOp   1
 RotChk:  IX=0 Diff= 3.78D-15
 Largest Abelian subgroup         C1      NOp   1
 Largest concise Abelian subgroup C1      NOp   1
                         Standard orientation:                         
 ---------------------------------------------------------------------
 Center     Atomic      Atomic             Coordinates (Angstroms)
 Number     Number       Type             X           Y           Z
 ---------------------------------------------------------------------
      1          7           0       -0.720207   -0.085131   -0.114797
      2          7           0        0.720207   -0.085131    0.114797
      3          1           0       -1.145982   -0.286664    0.808534
      4          1           0       -1.026392    0.882581   -0.338876
      5          1           0        1.026392    0.882581    0.338876
      6          1           0        1.145982   -0.286664   -0.808534
 ---------------------------------------------------------------------
 Rotational constants (GHZ):    135.2141495     23.8211840     23.7624884
 Leave Link  202 at Sat Feb 16 14:27:23 2019, MaxMem=   196608000 cpu:         0.3
 (Enter /cm/shared/c3ddb/gaussian/09.d01/g09/l601.exe)
 Copying SCF densities to generalized density rwf, IOpCl= 0 IROHF=0.

 **********************************************************************

            Population analysis using the SCF density.

 **********************************************************************

 Orbital symmetries:
       Occupied  (A) (A) (A) (A) (A) (A) (A) (A) (A)
       Virtual   (A) (A) (A) (A) (A)
 The electronic state is 1-A.
 Alpha  occ. eigenvalues --  -15.34992 -15.34924  -1.19637  -0.95493  -0.60843
 Alpha  occ. eigenvalues --   -0.59710  -0.52833  -0.35581  -0.33988
 Alpha virt. eigenvalues --    0.57910   0.58607   0.65329   0.68971   0.73313
          Condensed to atoms (all electrons):
               1          2          3          4          5          6
     1  N    6.429468   0.275289   0.330548   0.325507  -0.024945  -0.032547
     2  N    0.275289   6.429468  -0.032547  -0.024945   0.325507   0.330548
     3  H    0.330548  -0.032547   0.575631  -0.039245   0.000947   0.003236
     4  H    0.325507  -0.024945  -0.039245   0.603243  -0.007393   0.000947
     5  H   -0.024945   0.325507   0.000947  -0.007393   0.603243  -0.039245
     6  H   -0.032547   0.330548   0.003236   0.000947  -0.039245   0.575631
 Mulliken charges:
               1
     1  N   -0.303318
     2  N   -0.303318
     3  H    0.161432
     4  H    0.141887
     5  H    0.141887
     6  H    0.161432
 Sum of Mulliken charges =   0.00000
 Mulliken charges with hydrogens summed into heavy atoms:
               1
     1  N    0.000000
     2  N    0.000000
 Electronic spatial extent (au):  <R**2>=             81.9427
 Charge=              0.0000 electrons
 Dipole moment (field-independent basis, Debye):
    X=              0.0000    Y=              2.2220    Z=              0.0000  Tot=              2.2220
 Quadrupole moment (field-independent basis, Debye-Ang):
   XX=            -11.7067   YY=            -11.8113   ZZ=            -12.0529
   XY=              0.0000   XZ=             -2.5501   YZ=              0.0000
 Traceless Quadrupole moment (field-independent basis, Debye-Ang):
   XX=              0.1503   YY=              0.0457   ZZ=             -0.1960
   XY=              0.0000   XZ=             -2.5501   YZ=              0.0000
 Octapole moment (field-independent basis, Debye-Ang**2):
  XXX=              0.0000  YYY=              1.9083  ZZZ=              0.0000  XYY=              0.0000
  XXY=              2.1403  XXZ=              0.0000  XZZ=              0.0000  YZZ=              0.1413
  YYZ=              0.0000  XYZ=              1.5603
 Hexadecapole moment (field-independent basis, Debye-Ang**3):
 XXXX=            -55.9691 YYYY=            -14.6652 ZZZZ=            -14.6610 XXXY=              0.0000
 XXXZ=             -3.3048 YYYX=              0.0000 YYYZ=              0.0000 ZZZX=             -2.2475
 ZZZY=              0.0000 XXYY=            -11.4593 XXZZ=            -11.1788 YYZZ=             -5.0976
 XXYZ=              0.0000 YYXZ=              0.0014 ZZXY=              0.0000
 N-N= 4.087113822462D+01 E-N=-3.394107789735D+02  KE= 1.087323892946D+02
 No NMR shielding tensors so no spin-rotation constants.
 Leave Link  601 at Sat Feb 16 14:27:24 2019, MaxMem=   196608000 cpu:         4.1
 (Enter /cm/shared/c3ddb/gaussian/09.d01/g09/l9999.exe)
 1\1\GINC-NODE004\FOpt\RHF\STO-3G\H4N2\DUMINDA\16-Feb-2019\0\\#P opt=ca
 lcfc / scf=xqc\\name\\0,1\N,-0.6463251088,0.011617962,-0.3384146629\N,
 0.6303991238,0.0199609955,0.36686049\H,-1.1474616491,-0.8263148231,0.0
 096828439\H,-1.2188093232,0.8145734052,-0.0098544623\H,0.532231593,0.5
 812300411,1.2362094525\H,1.2712033942,0.5737848693,-0.2307096411\\Vers
 ion=AS64L-G09RevD.01\State=1-A\HF=-109.748057\RMSD=3.106e-09\RMSF=2.54
 3e-05\Dipole=-0.3029172,0.6161873,0.5410667\Quadrupole=0.7720237,0.258
 2767,-1.0303004,1.2441728,-1.0037065,0.4410955\PG=C01 [X(H4N2)]\\@


 Democracy is the recurrent suspicion that more than half of the people
 are right more than half of the time.
 -- E. B. White
 Job cpu time:       0 days  0 hours  4 minutes 36.8 seconds.
 File lengths (MBytes):  RWF=      5 Int=      0 D2E=      0 Chk=      1 Scr=      1
 Normal termination of Gaussian 09 at Sat Feb 16 14:27:24 2019.
