 Entering Gaussian System, Link 0=g09
 Initial command:
 /cm/shared/c3ddb/gaussian/09.d01/g09/l1.exe "/scratch/users/duminda/g09/a1684-7322574/Gau-64926.inp" -scrdir="/scratch/users/duminda/g09/a1684-7322574/"
 Entering Link 1 = /cm/shared/c3ddb/gaussian/09.d01/g09/l1.exe PID=     64927.
  
 Copyright (c) 1988,1990,1992,1993,1995,1998,2003,2009,2013,
            Gaussian, Inc.  All Rights Reserved.
  
 This is part of the Gaussian(R) 09 program.  It is based on
 the Gaussian(R) 03 system (copyright 2003, Gaussian, Inc.),
 the Gaussian(R) 98 system (copyright 1998, Gaussian, Inc.),
 the Gaussian(R) 94 system (copyright 1995, Gaussian, Inc.),
 the Gaussian 92(TM) system (copyright 1992, Gaussian, Inc.),
 the Gaussian 90(TM) system (copyright 1990, Gaussian, Inc.),
 the Gaussian 88(TM) system (copyright 1988, Gaussian, Inc.),
 the Gaussian 86(TM) system (copyright 1986, Carnegie Mellon
 University), and the Gaussian 82(TM) system (copyright 1983,
 Carnegie Mellon University). Gaussian is a federally registered
 trademark of Gaussian, Inc.
  
 This software contains proprietary and confidential information,
 including trade secrets, belonging to Gaussian, Inc.
  
 This software is provided under written license and may be
 used, copied, transmitted, or stored only in accord with that
 written license.
  
 The following legend is applicable only to US Government
 contracts under FAR:
  
                    RESTRICTED RIGHTS LEGEND
  
 Use, reproduction and disclosure by the US Government is
 subject to restrictions as set forth in subparagraphs (a)
 and (c) of the Commercial Computer Software - Restricted
 Rights clause in FAR 52.227-19.
  
 Gaussian, Inc.
 340 Quinnipiac St., Bldg. 40, Wallingford CT 06492
  
  
 ---------------------------------------------------------------
 Warning -- This program may not be used in any manner that
 competes with the business of Gaussian, Inc. or will provide
 assistance to any competitor of Gaussian, Inc.  The licensee
 of this program is prohibited from giving any competitor of
 Gaussian, Inc. access to this program.  By using this program,
 the user acknowledges that Gaussian, Inc. is engaged in the
 business of creating and licensing software in the field of
 computational chemistry and represents and warrants to the
 licensee that it is not a competitor of Gaussian, Inc. and that
 it will not use this program in any manner prohibited above.
 ---------------------------------------------------------------
  

 Cite this work as:
 Gaussian 09, Revision D.01,
 M. J. Frisch, G. W. Trucks, H. B. Schlegel, G. E. Scuseria, 
 M. A. Robb, J. R. Cheeseman, G. Scalmani, V. Barone, B. Mennucci, 
 G. A. Petersson, H. Nakatsuji, M. Caricato, X. Li, H. P. Hratchian, 
 A. F. Izmaylov, J. Bloino, G. Zheng, J. L. Sonnenberg, M. Hada, 
 M. Ehara, K. Toyota, R. Fukuda, J. Hasegawa, M. Ishida, T. Nakajima, 
 Y. Honda, O. Kitao, H. Nakai, T. Vreven, J. A. Montgomery, Jr., 
 J. E. Peralta, F. Ogliaro, M. Bearpark, J. J. Heyd, E. Brothers, 
 K. N. Kudin, V. N. Staroverov, T. Keith, R. Kobayashi, J. Normand, 
 K. Raghavachari, A. Rendell, J. C. Burant, S. S. Iyengar, J. Tomasi, 
 M. Cossi, N. Rega, J. M. Millam, M. Klene, J. E. Knox, J. B. Cross, 
 V. Bakken, C. Adamo, J. Jaramillo, R. Gomperts, R. E. Stratmann, 
 O. Yazyev, A. J. Austin, R. Cammi, C. Pomelli, J. W. Ochterski, 
 R. L. Martin, K. Morokuma, V. G. Zakrzewski, G. A. Voth, 
 P. Salvador, J. J. Dannenberg, S. Dapprich, A. D. Daniels, 
 O. Farkas, J. B. Foresman, J. V. Ortiz, J. Cioslowski, 
 and D. J. Fox, Gaussian, Inc., Wallingford CT, 2013.
 
 ******************************************
 Gaussian 09:  AS64L-G09RevD.01 24-Apr-2013
                16-Feb-2019 
 ******************************************
 %chk=check.chk
 %mem=1500mb
 %nproc=8
 Will use up to    8 processors via shared memory.
 --------------------------------
 #P opt=calcfc b97d/6-31g scf=xqc
 --------------------------------
 1/10=4,14=-1,18=20,19=15,26=3,38=1/1,3;
 2/9=110,12=2,17=6,18=5,40=1/2;
 3/5=1,6=6,11=2,16=1,25=1,30=1,71=2,74=-42,140=1/1,2,3;
 4//1;
 5/5=2,8=3,13=1,38=5/2,8;
 8/6=4,10=90,11=11/1;
 11/6=1,8=1,9=11,15=111,16=1/1,2,10;
 10/6=1,13=1/2;
 6/7=2,8=2,9=2,10=2,28=1/1;
 7/10=1,18=20,25=1/1,2,3,16;
 1/10=4,14=-1,18=20,19=15,26=3/3(2);
 2/9=110/2;
 99//99;
 2/9=110/2;
 3/5=1,6=6,11=2,16=1,25=1,30=1,71=1,74=-42/1,2,3;
 4/5=5,16=3,69=1/1;
 5/5=2,8=3,13=1,38=5/2,8;
 7//1,2,3,16;
 1/14=-1,18=20,19=15,26=3/3(-5);
 2/9=110/2;
 6/7=2,8=2,9=2,10=2,19=2,28=1/1;
 99/9=1/99;
 Leave Link    1 at Sat Feb 16 13:47:14 2019, MaxMem=   196608000 cpu:         0.9
 (Enter /cm/shared/c3ddb/gaussian/09.d01/g09/l101.exe)
 ----
 name
 ----
 Symbolic Z-matrix:
 Charge =  0 Multiplicity = 1
 N                     0.92507  -0.01549  -0.05109 
 N                     0.45053   0.26346  -1.38289 
 H                     0.6268   -0.94768   0.25703 
 H                     1.95009  -0.05637  -0.02779 
 H                     0.74879   1.19565  -1.69101 
 H                    -0.57449   0.30434  -1.40619 
 
 NAtoms=      6 NQM=        6 NQMF=       0 NMMI=      0 NMMIF=      0
                NMic=       0 NMicF=      0.
                    Isotopes and Nuclear Properties:
 (Nuclear quadrupole moments (NQMom) in fm**2, nuclear magnetic moments (NMagM)
  in nuclear magnetons)

  Atom         1           2           3           4           5           6
 IAtWgt=          14          14           1           1           1           1
 AtmWgt=  14.0030740  14.0030740   1.0078250   1.0078250   1.0078250   1.0078250
 NucSpn=           2           2           1           1           1           1
 AtZEff=   0.0000000   0.0000000   0.0000000   0.0000000   0.0000000   0.0000000
 NQMom=    2.0440000   2.0440000   0.0000000   0.0000000   0.0000000   0.0000000
 NMagM=    0.4037610   0.4037610   2.7928460   2.7928460   2.7928460   2.7928460
 AtZNuc=   7.0000000   7.0000000   1.0000000   1.0000000   1.0000000   1.0000000
 Leave Link  101 at Sat Feb 16 13:47:14 2019, MaxMem=   196608000 cpu:         1.1
 (Enter /cm/shared/c3ddb/gaussian/09.d01/g09/l103.exe)

 GradGradGradGradGradGradGradGradGradGradGradGradGradGradGradGradGradGrad
 Berny optimization.
 Initialization pass.
                           ----------------------------
                           !    Initial Parameters    !
                           ! (Angstroms and Degrees)  !
 --------------------------                            --------------------------
 ! Name  Definition              Value          Derivative Info.                !
 --------------------------------------------------------------------------------
 ! R1    R(1,2)                  1.4411         calculate D2E/DX2 analytically  !
 ! R2    R(1,3)                  1.0261         calculate D2E/DX2 analytically  !
 ! R3    R(1,4)                  1.0261         calculate D2E/DX2 analytically  !
 ! R4    R(2,5)                  1.0261         calculate D2E/DX2 analytically  !
 ! R5    R(2,6)                  1.0261         calculate D2E/DX2 analytically  !
 ! A1    A(2,1,3)              110.956          calculate D2E/DX2 analytically  !
 ! A2    A(2,1,4)              110.956          calculate D2E/DX2 analytically  !
 ! A3    A(3,1,4)              104.3216         calculate D2E/DX2 analytically  !
 ! A4    A(1,2,5)              110.956          calculate D2E/DX2 analytically  !
 ! A5    A(1,2,6)              110.956          calculate D2E/DX2 analytically  !
 ! A6    A(5,2,6)              104.3216         calculate D2E/DX2 analytically  !
 ! D1    D(3,1,2,5)            179.9999         calculate D2E/DX2 analytically  !
 ! D2    D(3,1,2,6)             64.512          calculate D2E/DX2 analytically  !
 ! D3    D(4,1,2,5)            -64.5121         calculate D2E/DX2 analytically  !
 ! D4    D(4,1,2,6)            180.0            calculate D2E/DX2 analytically  !
 --------------------------------------------------------------------------------
 Trust Radius=3.00D-01 FncErr=1.00D-07 GrdErr=1.00D-06
 Number of steps in this run=     25 maximum allowed number of steps=    100.
 GradGradGradGradGradGradGradGradGradGradGradGradGradGradGradGradGradGrad

 Leave Link  103 at Sat Feb 16 13:47:15 2019, MaxMem=   196608000 cpu:         0.1
 (Enter /cm/shared/c3ddb/gaussian/09.d01/g09/l202.exe)
                          Input orientation:                          
 ---------------------------------------------------------------------
 Center     Atomic      Atomic             Coordinates (Angstroms)
 Number     Number       Type             X           Y           Z
 ---------------------------------------------------------------------
      1          7           0        0.925073   -0.015492   -0.051088
      2          7           0        0.450527    0.263462   -1.382889
      3          1           0        0.626805   -0.947677    0.257033
      4          1           0        1.950087   -0.056373   -0.027788
      5          1           0        0.748793    1.195647   -1.691010
      6          1           0       -0.574488    0.304342   -1.406190
 ---------------------------------------------------------------------
                    Distance matrix (angstroms):
                    1          2          3          4          5
     1  N    0.000000
     2  N    1.441077   0.000000
     3  H    1.026094   2.046284   0.000000
     4  H    1.026094   2.046284   1.620686   0.000000
     5  H    2.046284   1.026094   2.898894   2.403532   0.000000
     6  H    2.046284   1.026094   2.403532   2.898894   1.620686
                    6
     6  H    0.000000
 Stoichiometry    H4N2
 Framework group  C2H[SGH(N2),X(H4)]
 Deg. of freedom     4
 Full point group                 C2H     NOp   4
 Largest Abelian subgroup         C2H     NOp   4
 Largest concise Abelian subgroup C2H     NOp   4
                         Standard orientation:                         
 ---------------------------------------------------------------------
 Center     Atomic      Atomic             Coordinates (Angstroms)
 Number     Number       Type             X           Y           Z
 ---------------------------------------------------------------------
      1          7           0        0.000000    0.720539    0.000000
      2          7           0        0.000000   -0.720539    0.000000
      3          1           0        0.511407    1.087522    0.810343
      4          1           0        0.511407    1.087522   -0.810343
      5          1           0       -0.511407   -1.087522   -0.810343
      6          1           0       -0.511407   -1.087522    0.810343
 ---------------------------------------------------------------------
 Rotational constants (GHZ):    147.3342725     24.8193575     22.7376855
 Leave Link  202 at Sat Feb 16 13:47:15 2019, MaxMem=   196608000 cpu:         0.3
 (Enter /cm/shared/c3ddb/gaussian/09.d01/g09/l301.exe)
 Standard basis: 6-31G (6D, 7F)
 Ernie: Thresh=  0.10000D-02 Tol=  0.10000D-05 Strict=F.
 There are     9 symmetry adapted cartesian basis functions of AG  symmetry.
 There are     4 symmetry adapted cartesian basis functions of BG  symmetry.
 There are     4 symmetry adapted cartesian basis functions of AU  symmetry.
 There are     9 symmetry adapted cartesian basis functions of BU  symmetry.
 There are     9 symmetry adapted basis functions of AG  symmetry.
 There are     4 symmetry adapted basis functions of BG  symmetry.
 There are     4 symmetry adapted basis functions of AU  symmetry.
 There are     9 symmetry adapted basis functions of BU  symmetry.
    26 basis functions,    60 primitive gaussians,    26 cartesian basis functions
     9 alpha electrons        9 beta electrons
       nuclear repulsion energy        41.1327816042 Hartrees.
 IExCor= 3630 DFT=T Ex+Corr=B97D ExCW=0 ScaHFX=  0.000000
 ScaDFX=  1.000000  1.000000  1.000000  1.000000 ScalE2=  1.000000  1.000000
 IRadAn=      0 IRanWt=     -1 IRanGd=            0 ICorTp=0 IEmpDi=121
 NAtoms=    6 NActive=    6 NUniq=    2 SFac= 4.00D+00 NAtFMM=   60 NAOKFM=F Big=F
 Integral buffers will be    131072 words long.
 Raffenetti 2 integral format.
 Two-electron integral symmetry is turned on.
 R6Disp:  Grimme-D2 Dispersion energy=       -0.0016184565 Hartrees.
 Nuclear repulsion after empirical dispersion term =       41.1311631477 Hartrees.
 Leave Link  301 at Sat Feb 16 13:47:15 2019, MaxMem=   196608000 cpu:         1.0
 (Enter /cm/shared/c3ddb/gaussian/09.d01/g09/l302.exe)
 NPDir=0 NMtPBC=     1 NCelOv=     1 NCel=       1 NClECP=     1 NCelD=      1
         NCelK=      1 NCelE2=     1 NClLst=     1 CellRange=     0.0.
 One-electron integrals computed using PRISM.
 One-electron integral symmetry used in STVInt
 NBasis=    26 RedAO= T EigKep=  2.04D-02  NBF=     9     4     4     9
 NBsUse=    26 1.00D-06 EigRej= -1.00D+00 NBFU=     9     4     4     9
 Precomputing XC quadrature grid using
 IXCGrd= 4 IRadAn=           0 IRanWt=          -1 IRanGd=           0 AccXCQ= 0.00D+00.
 Generated NRdTot=       0 NPtTot=           0 NUsed=           0 NTot=          32
 NSgBfM=    26    26    26    26    26 MxSgAt=     6 MxSgA2=     6.
 Leave Link  302 at Sat Feb 16 13:47:15 2019, MaxMem=   196608000 cpu:         3.9
 (Enter /cm/shared/c3ddb/gaussian/09.d01/g09/l303.exe)
 DipDrv:  MaxL=1.
 Leave Link  303 at Sat Feb 16 13:47:16 2019, MaxMem=   196608000 cpu:         0.7
 (Enter /cm/shared/c3ddb/gaussian/09.d01/g09/l401.exe)
 ExpMin= 1.61D-01 ExpMax= 4.17D+03 ExpMxC= 6.27D+02 IAcc=1 IRadAn=         1 AccDes= 0.00D+00
 Harris functional with IExCor= 3630 and IRadAn=       1 diagonalized for initial guess.
 HarFok:  IExCor= 3630 AccDes= 0.00D+00 IRadAn=         1 IDoV= 1 UseB2=F ITyADJ=14
 ICtDFT=  3500011 ScaDFX=  1.000000  1.000000  1.000000  1.000000
 FoFCou: FMM=F IPFlag=           0 FMFlag=      100000 FMFlg1=           0
         NFxFlg=           0 DoJE=T BraDBF=F KetDBF=T FulRan=T
         wScrn=  0.000000 ICntrl=     500 IOpCl=  0 I1Cent=   200000004 NGrid=           0
         NMat0=    1 NMatS0=      1 NMatT0=    0 NMatD0=    1 NMtDS0=    0 NMtDT0=    0
 Petite list used in FoFCou.
 Harris En= -111.785068908925    
 JPrj=0 DoOrth=F DoCkMO=F.
 Initial guess orbital symmetries:
       Occupied  (BU) (AG) (AG) (BU) (AU) (AG) (BG) (BU) (AG)
       Virtual   (BU) (AG) (AU) (BU) (BG) (BU) (AU) (AG) (AG) (BU)
                 (BG) (AU) (BU) (AG) (BG) (AG) (BU)
 The electronic state of the initial guess is 1-AG.
 Leave Link  401 at Sat Feb 16 13:47:16 2019, MaxMem=   196608000 cpu:         4.2
 (Enter /cm/shared/c3ddb/gaussian/09.d01/g09/l502.exe)
 Closed shell SCF:
 Using DIIS extrapolation, IDIIS=  1040.
 Integral symmetry usage will be decided dynamically.
 Keep J ints in memory in symmetry-blocked form, NReq=931212.
 IVT=        8518 IEndB=        8518 NGot=   196608000 MDV=   196582237
 LenX=   196582237 LenY=   196581120
 Requested convergence on RMS density matrix=1.00D-08 within  64 cycles.
 Requested convergence on MAX density matrix=1.00D-06.
 Requested convergence on             energy=1.00D-06.
 No special actions if energy rises.
 FoFCou: FMM=F IPFlag=           0 FMFlag=           0 FMFlg1=           0
         NFxFlg=           0 DoJE=F BraDBF=F KetDBF=F FulRan=T
         wScrn=  0.000000 ICntrl=     600 IOpCl=  0 I1Cent=           0 NGrid=           0
         NMat0=    1 NMatS0=    351 NMatT0=    0 NMatD0=    1 NMtDS0=    0 NMtDT0=    0
 Petite list used in FoFCou.
 Integral accuracy reduced to 1.0D-05 until final iterations.

 Cycle   1  Pass 0  IDiag  1:
 E= -111.679409300076    
 DIIS: error= 5.28D-02 at cycle   1 NSaved=   1.
 NSaved= 1 IEnMin= 1 EnMin= -111.679409300076     IErMin= 1 ErrMin= 5.28D-02
 ErrMax= 5.28D-02  0.00D+00 EMaxC= 1.00D-01 BMatC= 5.94D-02 BMatP= 5.94D-02
 IDIUse=3 WtCom= 4.72D-01 WtEn= 5.28D-01
 Coeff-Com:  0.100D+01
 Coeff-En:   0.100D+01
 Coeff:      0.100D+01
 Gap=     0.103 Goal=   None    Shift=    0.000
 GapD=    0.103 DampG=1.000 DampE=0.500 DampFc=0.5000 IDamp=-1.
 Damping current iteration by 5.00D-01
 RMSDP=2.24D-02 MaxDP=1.33D-01              OVMax= 1.65D-01

 Cycle   2  Pass 0  IDiag  1:
 E= -111.695986262712     Delta-E=       -0.016576962636 Rises=F Damp=T
 DIIS: error= 1.27D-02 at cycle   2 NSaved=   2.
 NSaved= 2 IEnMin= 2 EnMin= -111.695986262712     IErMin= 2 ErrMin= 1.27D-02
 ErrMax= 1.27D-02  0.00D+00 EMaxC= 1.00D-01 BMatC= 5.59D-03 BMatP= 5.94D-02
 IDIUse=3 WtCom= 8.73D-01 WtEn= 1.27D-01
 Coeff-Com:  0.219D+00 0.781D+00
 Coeff-En:   0.348D+00 0.652D+00
 Coeff:      0.236D+00 0.764D+00
 Gap=     0.172 Goal=   None    Shift=    0.000
 RMSDP=4.88D-03 MaxDP=2.87D-02 DE=-1.66D-02 OVMax= 9.19D-02

 Cycle   3  Pass 0  IDiag  1:
 E= -111.737048854295     Delta-E=       -0.041062591583 Rises=F Damp=F
 DIIS: error= 1.97D-03 at cycle   3 NSaved=   3.
 NSaved= 3 IEnMin= 3 EnMin= -111.737048854295     IErMin= 3 ErrMin= 1.97D-03
 ErrMax= 1.97D-03  0.00D+00 EMaxC= 1.00D-01 BMatC= 6.82D-05 BMatP= 5.59D-03
 IDIUse=3 WtCom= 9.80D-01 WtEn= 1.97D-02
 Coeff-Com:  0.464D-01 0.104D+00 0.850D+00
 Coeff-En:   0.000D+00 0.000D+00 0.100D+01
 Coeff:      0.455D-01 0.102D+00 0.852D+00
 Gap=     0.180 Goal=   None    Shift=    0.000
 RMSDP=8.16D-04 MaxDP=4.65D-03 DE=-4.11D-02 OVMax= 5.92D-03

 Cycle   4  Pass 0  IDiag  1:
 E= -111.737142671348     Delta-E=       -0.000093817052 Rises=F Damp=F
 DIIS: error= 2.71D-04 at cycle   4 NSaved=   4.
 NSaved= 4 IEnMin= 4 EnMin= -111.737142671348     IErMin= 4 ErrMin= 2.71D-04
 ErrMax= 2.71D-04  0.00D+00 EMaxC= 1.00D-01 BMatC= 1.80D-06 BMatP= 6.82D-05
 IDIUse=3 WtCom= 9.97D-01 WtEn= 2.71D-03
 Coeff-Com:  0.501D-02-0.386D-02 0.106D+00 0.893D+00
 Coeff-En:   0.000D+00 0.000D+00 0.000D+00 0.100D+01
 Coeff:      0.500D-02-0.385D-02 0.106D+00 0.893D+00
 Gap=     0.180 Goal=   None    Shift=    0.000
 RMSDP=9.39D-05 MaxDP=6.74D-04 DE=-9.38D-05 OVMax= 5.75D-04

 Cycle   5  Pass 0  IDiag  1:
 E= -111.737144871806     Delta-E=       -0.000002200459 Rises=F Damp=F
 DIIS: error= 1.83D-05 at cycle   5 NSaved=   5.
 NSaved= 5 IEnMin= 5 EnMin= -111.737144871806     IErMin= 5 ErrMin= 1.83D-05
 ErrMax= 1.83D-05  0.00D+00 EMaxC= 1.00D-01 BMatC= 6.99D-09 BMatP= 1.80D-06
 IDIUse=1 WtCom= 1.00D+00 WtEn= 0.00D+00
 Coeff-Com:  0.768D-03-0.133D-02 0.139D-01 0.148D+00 0.839D+00
 Coeff:      0.768D-03-0.133D-02 0.139D-01 0.148D+00 0.839D+00
 Gap=     0.180 Goal=   None    Shift=    0.000
 RMSDP=5.64D-06 MaxDP=3.64D-05 DE=-2.20D-06 OVMax= 4.19D-05

 Initial convergence to 1.0D-05 achieved.  Increase integral accuracy.
 Cycle   6  Pass 1  IDiag  1:
 E= -111.737171313025     Delta-E=       -0.000026441218 Rises=F Damp=F
 DIIS: error= 5.51D-06 at cycle   1 NSaved=   1.
 NSaved= 1 IEnMin= 1 EnMin= -111.737171313025     IErMin= 1 ErrMin= 5.51D-06
 ErrMax= 5.51D-06  0.00D+00 EMaxC= 1.00D-01 BMatC= 1.37D-09 BMatP= 1.37D-09
 IDIUse=1 WtCom= 1.00D+00 WtEn= 0.00D+00
 Coeff-Com:  0.100D+01
 Coeff:      0.100D+01
 Gap=     0.180 Goal=   None    Shift=    0.000
 RMSDP=5.64D-06 MaxDP=3.64D-05 DE=-2.64D-05 OVMax= 3.54D-05

 Cycle   7  Pass 1  IDiag  1:
 E= -111.737171313767     Delta-E=       -0.000000000742 Rises=F Damp=F
 DIIS: error= 6.66D-06 at cycle   2 NSaved=   2.
 NSaved= 2 IEnMin= 2 EnMin= -111.737171313767     IErMin= 1 ErrMin= 5.51D-06
 ErrMax= 6.66D-06  0.00D+00 EMaxC= 1.00D-01 BMatC= 9.85D-10 BMatP= 1.37D-09
 IDIUse=1 WtCom= 1.00D+00 WtEn= 0.00D+00
 Coeff-Com:  0.448D+00 0.552D+00
 Coeff:      0.448D+00 0.552D+00
 Gap=     0.180 Goal=   None    Shift=    0.000
 RMSDP=1.60D-06 MaxDP=9.77D-06 DE=-7.42D-10 OVMax= 1.11D-05

 Cycle   8  Pass 1  IDiag  1:
 E= -111.737171314527     Delta-E=       -0.000000000760 Rises=F Damp=F
 DIIS: error= 2.70D-06 at cycle   3 NSaved=   3.
 NSaved= 3 IEnMin= 3 EnMin= -111.737171314527     IErMin= 3 ErrMin= 2.70D-06
 ErrMax= 2.70D-06  0.00D+00 EMaxC= 1.00D-01 BMatC= 1.73D-10 BMatP= 9.85D-10
 IDIUse=1 WtCom= 1.00D+00 WtEn= 0.00D+00
 Coeff-Com:  0.507D-02 0.295D+00 0.700D+00
 Coeff:      0.507D-02 0.295D+00 0.700D+00
 Gap=     0.180 Goal=   None    Shift=    0.000
 RMSDP=4.41D-07 MaxDP=2.85D-06 DE=-7.60D-10 OVMax= 3.20D-06

 Cycle   9  Pass 1  IDiag  1:
 E= -111.737171314684     Delta-E=       -0.000000000157 Rises=F Damp=F
 DIIS: error= 6.88D-08 at cycle   4 NSaved=   4.
 NSaved= 4 IEnMin= 4 EnMin= -111.737171314684     IErMin= 4 ErrMin= 6.88D-08
 ErrMax= 6.88D-08  0.00D+00 EMaxC= 1.00D-01 BMatC= 1.02D-13 BMatP= 1.73D-10
 IDIUse=1 WtCom= 1.00D+00 WtEn= 0.00D+00
 Coeff-Com: -0.234D-03 0.505D-01 0.118D+00 0.832D+00
 Coeff:     -0.234D-03 0.505D-01 0.118D+00 0.832D+00
 Gap=     0.180 Goal=   None    Shift=    0.000
 RMSDP=3.52D-08 MaxDP=1.94D-07 DE=-1.57D-10 OVMax= 2.82D-07

 Cycle  10  Pass 1  IDiag  1:
 E= -111.737171314684     Delta-E=        0.000000000000 Rises=F Damp=F
 DIIS: error= 5.89D-09 at cycle   5 NSaved=   5.
 NSaved= 5 IEnMin= 5 EnMin= -111.737171314684     IErMin= 5 ErrMin= 5.89D-09
 ErrMax= 5.89D-09  0.00D+00 EMaxC= 1.00D-01 BMatC= 6.03D-16 BMatP= 1.02D-13
 IDIUse=1 WtCom= 1.00D+00 WtEn= 0.00D+00
 Coeff-Com: -0.961D-04 0.623D-02 0.153D-01 0.132D+00 0.847D+00
 Coeff:     -0.961D-04 0.623D-02 0.153D-01 0.132D+00 0.847D+00
 Gap=     0.180 Goal=   None    Shift=    0.000
 RMSDP=2.29D-09 MaxDP=1.67D-08 DE=-3.98D-13 OVMax= 1.53D-08

 SCF Done:  E(RB97D) =  -111.737171315     A.U. after   10 cycles
            NFock= 10  Conv=0.23D-08     -V/T= 2.0044
 KE= 1.112519826470D+02 PE=-3.437854715325D+02 EE= 7.966515442316D+01
 Leave Link  502 at Sat Feb 16 13:47:19 2019, MaxMem=   196608000 cpu:        18.2
 (Enter /cm/shared/c3ddb/gaussian/09.d01/g09/l508.exe)
 QCSCF skips out because SCF is already converged.
 Leave Link  508 at Sat Feb 16 13:47:19 2019, MaxMem=   196608000 cpu:         0.0
 (Enter /cm/shared/c3ddb/gaussian/09.d01/g09/l801.exe)
 DoSCS=F DFT=T ScalE2(SS,OS)=  1.000000  1.000000
 Range of M.O.s used for correlation:     1    26
 NBasis=    26 NAE=     9 NBE=     9 NFC=     0 NFV=     0
 NROrb=     26 NOA=     9 NOB=     9 NVA=    17 NVB=    17
 Leave Link  801 at Sat Feb 16 13:47:19 2019, MaxMem=   196608000 cpu:         0.3
 (Enter /cm/shared/c3ddb/gaussian/09.d01/g09/l1101.exe)
 Using compressed storage, NAtomX=     6.
 Will process      7 centers per pass.
 R6Disp: Adding Grimme-D2 dispersion energy 1st derivatives to the gradient.
 Leave Link 1101 at Sat Feb 16 13:47:19 2019, MaxMem=   196608000 cpu:         2.7
 (Enter /cm/shared/c3ddb/gaussian/09.d01/g09/l1102.exe)
 Symmetrizing basis deriv contribution to polar:
 IMax=3 JMax=2 DiffMx= 0.00D+00
 Leave Link 1102 at Sat Feb 16 13:47:20 2019, MaxMem=   196608000 cpu:         0.5
 (Enter /cm/shared/c3ddb/gaussian/09.d01/g09/l1110.exe)
 Forming Gx(P) for the SCF density, NAtomX=     6.
 Integral derivatives from FoFJK, PRISM(SPDF).
 Do as many integral derivatives as possible in FoFJK.
 G2DrvN: MDV=     196607848.
 G2DrvN: will do     7 centers at a time, making    1 passes.
 Calling FoFCou, ICntrl=  3507 FMM=F I1Cent=   0 AccDes= 0.00D+00.
 FoFJK:  IHMeth= 1 ICntrl=    3507 DoSepK=F KAlg= 0 I1Cent=   0 FoldK=F
 IRaf=         0 NMat=   1 IRICut=       1 DoRegI=T DoRafI=F ISym2E= 1.
 FoFCou: FMM=F IPFlag=           0 FMFlag=      100000 FMFlg1=           0
         NFxFlg=           0 DoJE=F BraDBF=F KetDBF=F FulRan=T
         wScrn=  0.000000 ICntrl=    3507 IOpCl=  0 I1Cent=           0 NGrid=           0
         NMat0=    1 NMatS0=      1 NMatT0=    0 NMatD0=    1 NMtDS0=    0 NMtDT0=    0
 Petite list used in FoFCou.
 End of G2Drv F.D. properties file   721 does not exist.
 End of G2Drv F.D. properties file   722 does not exist.
 End of G2Drv F.D. properties file   788 does not exist.
 Leave Link 1110 at Sat Feb 16 13:47:20 2019, MaxMem=   196608000 cpu:         2.4
 (Enter /cm/shared/c3ddb/gaussian/09.d01/g09/l1002.exe)
 Minotr:  Closed shell wavefunction.
          IDoAtm=111111
          Direct CPHF calculation.
          Differentiating once with respect to nuclear coordinates.
          Using symmetry in CPHF.
          Requested convergence is 1.0D-08 RMS, and 1.0D-07 maximum.
          Secondary convergence is 1.0D-12 RMS, and 1.0D-12 maximum.
          NewPWx=T KeepS1=F KeepF1=F KeepIn=T MapXYZ=F SortEE=F KeepMc=T.
          MDV=     196607910 using IRadAn=       2.
 Generate precomputed XC quadrature information.
 Keep J ints in memory in symmetry-blocked form, NReq=922968.
 FoFCou: FMM=F IPFlag=           0 FMFlag=           0 FMFlg1=           0
         NFxFlg=           0 DoJE=F BraDBF=F KetDBF=F FulRan=T
         wScrn=  0.000000 ICntrl=     600 IOpCl=  0 I1Cent=           0 NGrid=           0
         NMat0=    1 NMatS0=    351 NMatT0=    0 NMatD0=    1 NMtDS0=    0 NMtDT0=    0
 Petite list used in FoFCou.
          Solving linear equations simultaneously, MaxMat=       0.
          There are     9 degrees of freedom in the 1st order CPHF.  IDoFFX=4 NUNeed=     9.
      6 vectors produced by pass  0 Test12= 1.70D-15 1.11D-08 XBig12= 1.62D-01 1.94D-01.
 AX will form     6 AO Fock derivatives at one time.
      6 vectors produced by pass  1 Test12= 1.70D-15 1.11D-08 XBig12= 2.45D-02 5.88D-02.
      6 vectors produced by pass  2 Test12= 1.70D-15 1.11D-08 XBig12= 6.50D-04 1.25D-02.
      6 vectors produced by pass  3 Test12= 1.70D-15 1.11D-08 XBig12= 6.06D-06 9.00D-04.
      6 vectors produced by pass  4 Test12= 1.70D-15 1.11D-08 XBig12= 1.86D-08 4.15D-05.
      5 vectors produced by pass  5 Test12= 1.70D-15 1.11D-08 XBig12= 2.17D-11 1.53D-06.
      1 vectors produced by pass  6 Test12= 1.70D-15 1.11D-08 XBig12= 5.10D-15 2.38D-08.
 InvSVY:  IOpt=1 It=  1 EMax= 6.66D-16
 Solved reduced A of dimension    36 with     6 vectors.
 FullF1:  Do perturbations    4 to     9.
 End of Minotr F.D. properties file   721 does not exist.
 End of Minotr F.D. properties file   722 does not exist.
 End of Minotr F.D. properties file   788 does not exist.
 Leave Link 1002 at Sat Feb 16 13:47:20 2019, MaxMem=   196608000 cpu:         3.6
 (Enter /cm/shared/c3ddb/gaussian/09.d01/g09/l601.exe)
 Copying SCF densities to generalized density rwf, IOpCl= 0 IROHF=0.

 **********************************************************************

            Population analysis using the SCF density.

 **********************************************************************

 Orbital symmetries:
       Occupied  (BU) (AG) (AG) (BU) (AU) (AG) (BG) (BU) (AG)
       Virtual   (AG) (BU) (AU) (BG) (BU) (AU) (BU) (AG) (AG) (BU)
                 (BG) (AU) (BU) (AG) (BG) (AG) (BU)
 The electronic state is 1-AG.
 Alpha  occ. eigenvalues --  -14.00255 -14.00248  -0.86586  -0.68652  -0.46271
 Alpha  occ. eigenvalues --   -0.42269  -0.36137  -0.26852  -0.11639
 Alpha virt. eigenvalues --    0.06327   0.06762   0.11334   0.15660   0.18569
 Alpha virt. eigenvalues --    0.63388   0.65108   0.70558   0.71674   0.73151
 Alpha virt. eigenvalues --    0.81764   0.88789   0.90249   0.92103   0.92471
 Alpha virt. eigenvalues --    1.19789   1.41803
          Condensed to atoms (all electrons):
               1          2          3          4          5          6
     1  N    6.886938   0.144942   0.316205   0.316205  -0.042889  -0.042889
     2  N    0.144942   6.886938  -0.042889  -0.042889   0.316205   0.316205
     3  H    0.316205  -0.042889   0.480164  -0.043352   0.005861  -0.005246
     4  H    0.316205  -0.042889  -0.043352   0.480164  -0.005246   0.005861
     5  H   -0.042889   0.316205   0.005861  -0.005246   0.480164  -0.043352
     6  H   -0.042889   0.316205  -0.005246   0.005861  -0.043352   0.480164
 Mulliken charges:
               1
     1  N   -0.578512
     2  N   -0.578512
     3  H    0.289256
     4  H    0.289256
     5  H    0.289256
     6  H    0.289256
 Sum of Mulliken charges =   0.00000
 Mulliken charges with hydrogens summed into heavy atoms:
               1
     1  N    0.000000
     2  N    0.000000
 APT charges:
               1
     1  N   -1.003159
     2  N   -1.003159
     3  H    0.501579
     4  H    0.501579
     5  H    0.501579
     6  H    0.501579
 Sum of APT charges =   0.00000
 APT charges with hydrogens summed into heavy atoms:
               1
     1  N    0.000000
     2  N    0.000000
 Electronic spatial extent (au):  <R**2>=             83.6735
 Charge=              0.0000 electrons
 Dipole moment (field-independent basis, Debye):
    X=              0.0000    Y=              0.0000    Z=              0.0000  Tot=              0.0000
 Quadrupole moment (field-independent basis, Debye-Ang):
   XX=            -14.3110   YY=            -12.6299   ZZ=            -10.3268
   XY=              4.7555   XZ=              0.0000   YZ=              0.0000
 Traceless Quadrupole moment (field-independent basis, Debye-Ang):
   XX=             -1.8884   YY=             -0.2073   ZZ=              2.0957
   XY=              4.7555   XZ=              0.0000   YZ=              0.0000
 Octapole moment (field-independent basis, Debye-Ang**2):
  XXX=              0.0000  YYY=              0.0000  ZZZ=              0.0000  XYY=              0.0000
  XXY=              0.0000  XXZ=              0.0000  XZZ=              0.0000  YZZ=              0.0000
  YYZ=              0.0000  XYZ=              0.0000
 Hexadecapole moment (field-independent basis, Debye-Ang**3):
 XXXX=            -17.1308 YYYY=            -60.4343 ZZZZ=            -17.1791 XXXY=             -1.4422
 XXXZ=              0.0000 YYYX=              3.3275 YYYZ=              0.0000 ZZZX=              0.0000
 ZZZY=              0.0000 XXYY=            -13.5730 XXZZ=             -5.1941 YYZZ=            -10.3448
 XXYZ=              0.0000 YYXZ=              0.0000 ZZXY=              1.1582
 N-N= 4.113116314765D+01 E-N=-3.437854714208D+02  KE= 1.112519826470D+02
 Symmetry AG   KE= 5.490167359919D+01
 Symmetry BG   KE= 2.848655563372D+00
 Symmetry AU   KE= 2.535386871532D+00
 Symmetry BU   KE= 5.096626661289D+01
  Exact polarizability:   0.000   0.000   0.000   0.000   0.000   0.000
 Approx polarizability:  12.415   6.752  23.215   0.000   0.000  23.278
 No NMR shielding tensors so no spin-rotation constants.
 Leave Link  601 at Sat Feb 16 13:47:21 2019, MaxMem=   196608000 cpu:         3.3
 (Enter /cm/shared/c3ddb/gaussian/09.d01/g09/l701.exe)
 Compute integral second derivatives.
 ... and contract with generalized density number  0.
 R6Disp: Adding Grimme-D2 dispersion energy 2nd derivatives to the Hessian.
 Leave Link  701 at Sat Feb 16 13:47:21 2019, MaxMem=   196608000 cpu:         1.3
 (Enter /cm/shared/c3ddb/gaussian/09.d01/g09/l702.exe)
 L702 exits ... SP integral derivatives will be done elsewhere.
 Leave Link  702 at Sat Feb 16 13:47:21 2019, MaxMem=   196608000 cpu:         0.3
 (Enter /cm/shared/c3ddb/gaussian/09.d01/g09/l703.exe)
 Compute integral second derivatives, UseDBF=F ICtDFT=           0.
 Integral derivatives from FoFJK, PRISM(SPDF).
 Calling FoFJK, ICntrl=    100547 FMM=F ISym2X=1 I1Cent= 0 IOpClX= 0 NMat=1 NMatS=1 NMatT=0.
 FoFJK:  IHMeth= 1 ICntrl=  100547 DoSepK=F KAlg= 0 I1Cent=   0 FoldK=F
 IRaf=         0 NMat=   1 IRICut=       1 DoRegI=T DoRafI=F ISym2E= 1.
 FoFCou: FMM=F IPFlag=           0 FMFlag=      100000 FMFlg1=         800
         NFxFlg=           0 DoJE=F BraDBF=F KetDBF=F FulRan=T
         wScrn=  0.000000 ICntrl=  100547 IOpCl=  0 I1Cent=           0 NGrid=           0
         NMat0=    1 NMatS0=      1 NMatT0=    0 NMatD0=    1 NMtDS0=    0 NMtDT0=    0
 Petite list used in FoFCou.
 Leave Link  703 at Sat Feb 16 13:47:22 2019, MaxMem=   196608000 cpu:         3.3
 (Enter /cm/shared/c3ddb/gaussian/09.d01/g09/l716.exe)
 Dipole        =-3.97289126D-16-2.22044605D-15-1.62795750D-15
 Polarizability= 0.00000000D+00 0.00000000D+00 0.00000000D+00
                 0.00000000D+00 0.00000000D+00 0.00000000D+00
 ***** Axes restored to original set *****
 -------------------------------------------------------------------
 Center     Atomic                   Forces (Hartrees/Bohr)
 Number     Number              X              Y              Z
 -------------------------------------------------------------------
      1        7           0.007917539    0.001125351    0.040306644
      2        7          -0.007917539   -0.001125351   -0.040306644
      3        1          -0.006443173    0.000825211   -0.008056107
      4        1          -0.000905371    0.004555231   -0.009248053
      5        1           0.006443173   -0.000825211    0.008056107
      6        1           0.000905371   -0.004555231    0.009248053
 -------------------------------------------------------------------
 Cartesian Forces:  Max     0.040306644 RMS     0.014540258
 Force constants in Cartesian coordinates: 
                1             2             3             4             5 
      1  0.575121D+00
      2  0.120995D+00  0.401435D+00
      3  0.658135D-01 -0.192085D+00  0.347121D+00
      4 -0.102689D+00 -0.224900D-01 -0.644636D-01  0.575121D+00
      5 -0.224900D-01 -0.520064D-01  0.580990D-01  0.120995D+00  0.401435D+00
      6 -0.644636D-01  0.580990D-01 -0.221649D+00  0.658135D-01 -0.192085D+00
      7 -0.813024D-01 -0.903248D-01  0.184428D-01  0.440140D-02  0.147497D-01
      8 -0.131365D+00 -0.318313D+00  0.121681D+00 -0.123895D-02 -0.255007D-02
      9  0.201900D-02  0.689686D-01 -0.585652D-01  0.149950D-01  0.387012D-01
     10 -0.388044D+00 -0.237076D-01 -0.173602D-01 -0.748723D-02  0.777384D-03
     11  0.267506D-01 -0.277811D-01  0.190629D-01  0.734834D-02 -0.783584D-03
     12  0.285349D-01  0.280201D-01 -0.423557D-01 -0.468987D-01 -0.170386D-02
     13  0.440140D-02  0.147497D-01 -0.992865D-02 -0.813024D-01 -0.903248D-01
     14 -0.123895D-02 -0.255007D-02 -0.746113D-02 -0.131365D+00 -0.318313D+00
     15  0.149950D-01  0.387012D-01 -0.173368D-01  0.201900D-02  0.689686D-01
     16 -0.748723D-02  0.777384D-03  0.749623D-02 -0.388044D+00 -0.237076D-01
     17  0.734834D-02 -0.783584D-03  0.703643D-03  0.267506D-01 -0.277811D-01
     18 -0.468987D-01 -0.170386D-02 -0.721467D-02  0.285349D-01  0.280201D-01
                6             7             8             9            10 
      6  0.347121D+00
      7 -0.992865D-02  0.968936D-01
      8 -0.746113D-02  0.116096D+00  0.327678D+00
      9 -0.173368D-01 -0.163446D-01 -0.110999D+00  0.792514D-01
     10  0.749623D-02 -0.175036D-01  0.121571D-01  0.293799D-02  0.411426D+00
     11  0.703643D-03 -0.451907D-01 -0.591383D-02  0.249596D-02  0.742754D-02
     12 -0.721467D-02  0.117819D-01 -0.389057D-02  0.179970D-02  0.892022D-02
     13  0.184428D-01 -0.189562D-02  0.342346D-02 -0.328969D-02 -0.593395D-03
     14  0.121681D+00  0.342346D-02  0.282889D-04 -0.626249D-03  0.927438D-03
     15 -0.585652D-01 -0.328969D-02 -0.626249D-03 -0.743110D-02 -0.317686D-03
     16 -0.173602D-01 -0.593395D-03  0.927438D-03 -0.317686D-03  0.220201D-02
     17  0.190629D-01  0.124612D-02 -0.929015D-03  0.145994D-02  0.241807D-02
     18 -0.423557D-01 -0.661777D-03  0.129677D-02  0.228209D-02 -0.167655D-02
               11            12            13            14            15 
     11  0.385926D-01
     12 -0.249932D-01  0.538040D-01
     13  0.124612D-02 -0.661777D-03  0.968936D-01
     14 -0.929015D-03  0.129677D-02  0.116096D+00  0.327678D+00
     15  0.145994D-02  0.228209D-02 -0.163446D-01 -0.110999D+00  0.792514D-01
     16  0.241807D-02 -0.167655D-02 -0.175036D-01  0.121571D-01  0.293799D-02
     17 -0.318509D-02  0.127074D-02 -0.451907D-01 -0.591383D-02  0.249596D-02
     18  0.127074D-02 -0.831535D-02  0.117819D-01 -0.389057D-02  0.179970D-02
               16            17            18 
     16  0.411426D+00
     17  0.742754D-02  0.385926D-01
     18  0.892022D-02 -0.249932D-01  0.538040D-01
 FormGI is forming the generalized inverse of G from B-inverse, IUseBI=4.
 Force constants in internal coordinates: 
                1             2             3             4             5 
      1  0.352546D+00
      2 -0.138925D-02  0.410513D+00
      3 -0.138925D-02 -0.581931D-02  0.410513D+00
      4 -0.138925D-02 -0.191283D-02  0.810224D-03  0.410513D+00
      5 -0.138925D-02  0.810224D-03 -0.191283D-02 -0.581931D-02  0.410513D+00
      6  0.437028D-01  0.118804D-01  0.101259D-02  0.355821D-02 -0.276381D-03
      7  0.437028D-01  0.101259D-02  0.118804D-01 -0.276381D-03  0.355821D-02
      8 -0.278803D-01  0.134903D-01  0.134903D-01 -0.232589D-02 -0.232589D-02
      9  0.437028D-01  0.355821D-02 -0.276381D-03  0.118804D-01  0.101259D-02
     10  0.437028D-01 -0.276381D-03  0.355821D-02  0.101259D-02  0.118804D-01
     11 -0.278803D-01 -0.232589D-02 -0.232589D-02  0.134903D-01  0.134903D-01
     12  0.000000D+00 -0.132911D-01 -0.120084D-01  0.132911D-01  0.120084D-01
     13 -0.187262D-01 -0.124199D-01 -0.111372D-01 -0.111372D-01 -0.124199D-01
     14  0.187262D-01  0.111372D-01  0.124199D-01  0.124199D-01  0.111372D-01
     15  0.000000D+00  0.120084D-01  0.132911D-01 -0.120084D-01 -0.132911D-01
                6             7             8             9            10 
      6  0.161294D+00
      7 -0.391361D-01  0.161294D+00
      8 -0.536162D-01 -0.536162D-01  0.676775D-01
      9  0.257475D-01 -0.118728D-01 -0.504007D-02  0.161294D+00
     10 -0.118728D-01  0.257475D-01 -0.504007D-02 -0.391361D-01  0.161294D+00
     11 -0.504007D-02 -0.504007D-02  0.478975D-02 -0.536162D-01 -0.536162D-01
     12 -0.121718D-02 -0.470584D-02 -0.922362D-02  0.121718D-02  0.470584D-02
     13 -0.343360D-02 -0.692226D-02 -0.900185D-02 -0.692226D-02 -0.343360D-02
     14  0.692226D-02  0.343360D-02  0.900185D-02  0.343360D-02  0.692226D-02
     15  0.470584D-02  0.121718D-02  0.922362D-02 -0.470584D-02 -0.121718D-02
               11            12            13            14            15 
     11  0.676775D-01
     12  0.922362D-02  0.140000D-01
     13 -0.900185D-02 -0.947147D-03  0.164171D-01
     14  0.900185D-02 -0.947147D-03 -0.183114D-01  0.164171D-01
     15 -0.922362D-02 -0.158943D-01 -0.947147D-03 -0.947147D-03  0.140000D-01
 Leave Link  716 at Sat Feb 16 13:47:22 2019, MaxMem=   196608000 cpu:         0.7
 (Enter /cm/shared/c3ddb/gaussian/09.d01/g09/l103.exe)

 GradGradGradGradGradGradGradGradGradGradGradGradGradGradGradGradGradGrad
 Berny optimization.
 Red2BG is reusing G-inverse.
 Internal  Forces:  Max     0.020181415 RMS     0.009843633
 Search for a local minimum.
 Step number   1 out of a maximum of   25
 All quantities printed in internal units (Hartrees-Bohrs-Radians)
 RMS Force = .98436D-02 SwitMx=.10000D-02 MixMth= 1
 Mixed Optimization -- RFO/linear search
 Second derivative matrix not updated -- analytic derivatives used.
 The second derivative matrix:
                          R1        R2        R3        R4        R5
           R1           0.35255
           R2          -0.00139   0.41051
           R3          -0.00139  -0.00582   0.41051
           R4          -0.00139  -0.00191   0.00081   0.41051
           R5          -0.00139   0.00081  -0.00191  -0.00582   0.41051
           A1           0.04370   0.01188   0.00101   0.00356  -0.00028
           A2           0.04370   0.00101   0.01188  -0.00028   0.00356
           A3          -0.02788   0.01349   0.01349  -0.00233  -0.00233
           A4           0.04370   0.00356  -0.00028   0.01188   0.00101
           A5           0.04370  -0.00028   0.00356   0.00101   0.01188
           A6          -0.02788  -0.00233  -0.00233   0.01349   0.01349
           D1           0.00000  -0.01329  -0.01201   0.01329   0.01201
           D2          -0.01873  -0.01242  -0.01114  -0.01114  -0.01242
           D3           0.01873   0.01114   0.01242   0.01242   0.01114
           D4           0.00000   0.01201   0.01329  -0.01201  -0.01329
                          A1        A2        A3        A4        A5
           A1           0.16129
           A2          -0.03914   0.16129
           A3          -0.05362  -0.05362   0.06768
           A4           0.02575  -0.01187  -0.00504   0.16129
           A5          -0.01187   0.02575  -0.00504  -0.03914   0.16129
           A6          -0.00504  -0.00504   0.00479  -0.05362  -0.05362
           D1          -0.00122  -0.00471  -0.00922   0.00122   0.00471
           D2          -0.00343  -0.00692  -0.00900  -0.00692  -0.00343
           D3           0.00692   0.00343   0.00900   0.00343   0.00692
           D4           0.00471   0.00122   0.00922  -0.00471  -0.00122
                          A6        D1        D2        D3        D4
           A6           0.06768
           D1           0.00922   0.01400
           D2          -0.00900  -0.00095   0.01642
           D3           0.00900  -0.00095  -0.01831   0.01642
           D4          -0.00922  -0.01589  -0.00095  -0.00095   0.01400
 ITU=  0
     Eigenvalues ---   -0.00410   0.03802   0.04186   0.15063   0.15790
     Eigenvalues ---    0.16291   0.23683   0.39811   0.40877   0.41094
     Eigenvalues ---    0.41483   0.41926
 Eigenvalue     1 is  -4.10D-03 should be greater than     0.000000 Eigenvector:
                          D3        D1        D4        D2        A4
   1                   -0.49955  -0.49955  -0.49955  -0.49955  -0.02102
                          A2        A1        A5        R3        R4
   1                   -0.02102   0.02102   0.02102   0.00338   0.00338
 RFO step:  Lambda=-1.03721024D-02 EMin=-4.09959571D-03
 Linear search not attempted -- first point.
 Iteration  1 RMS(Cart)=  0.10271011 RMS(Int)=  0.10101865
 Iteration  2 RMS(Cart)=  0.07633562 RMS(Int)=  0.01429564
 Iteration  3 RMS(Cart)=  0.01071680 RMS(Int)=  0.00607213
 Iteration  4 RMS(Cart)=  0.00012180 RMS(Int)=  0.00607050
 Iteration  5 RMS(Cart)=  0.00000182 RMS(Int)=  0.00607050
 Iteration  6 RMS(Cart)=  0.00000003 RMS(Int)=  0.00607050
 ITry= 1 IFail=0 DXMaxC= 2.96D-01 DCOld= 1.00D+10 DXMaxT= 3.00D-01 DXLimC= 3.00D+00 Rises=F
 ClnCor:  largest displacement from symmetrization is 6.04D-01 for atom     5.
          Exceeds limit of 1.00D-01 so symmetrization was rejected.
 Variable       Old X    -DE/DX   Delta X   Delta X   Delta X     New X
                                 (Linear)    (Quad)   (Total)
    R1        2.72324   0.02018   0.00000   0.12632   0.12632   2.84957
    R2        1.93904  -0.00129   0.00000   0.00440   0.00440   1.94344
    R3        1.93904  -0.00129   0.00000   0.00947   0.00947   1.94851
    R4        1.93904  -0.00129   0.00000   0.00947   0.00947   1.94851
    R5        1.93904  -0.00129   0.00000   0.00440   0.00440   1.94344
    A1        1.93655  -0.01399   0.00000  -0.09930  -0.10301   1.83354
    A2        1.93655  -0.01399   0.00000  -0.13084  -0.13479   1.80175
    A3        1.82076   0.01065   0.00000   0.02891   0.01732   1.83807
    A4        1.93655  -0.01399   0.00000  -0.13084  -0.13479   1.80175
    A5        1.93655  -0.01399   0.00000  -0.09930  -0.10301   1.83354
    A6        1.82076   0.01065   0.00000   0.02891   0.01732   1.83807
    D1        3.14159   0.00000   0.00000  -0.37466  -0.37466   2.76693
    D2        1.12595   0.00386   0.00000  -0.27058  -0.28120   0.84475
    D3       -1.12595  -0.00386   0.00000  -0.47873  -0.46812  -1.59407
    D4        3.14159   0.00000   0.00000  -0.37466  -0.37466   2.76693
         Item               Value     Threshold  Converged?
 Maximum Force            0.020181     0.000450     NO 
 RMS     Force            0.009844     0.000300     NO 
 Maximum Displacement     0.296172     0.001800     NO 
 RMS     Displacement     0.174761     0.001200     NO 
 Predicted change in Energy=-6.805843D-03
 Lowest energy point so far.  Saving SCF results.
 GradGradGradGradGradGradGradGradGradGradGradGradGradGradGradGradGradGrad

 Leave Link  103 at Sat Feb 16 13:47:22 2019, MaxMem=   196608000 cpu:         0.2
 (Enter /cm/shared/c3ddb/gaussian/09.d01/g09/l202.exe)
                          Input orientation:                          
 ---------------------------------------------------------------------
 Center     Atomic      Atomic             Coordinates (Angstroms)
 Number     Number       Type             X           Y           Z
 ---------------------------------------------------------------------
      1          7           0        0.970727    0.051002   -0.018613
      2          7           0        0.516142    0.271914   -1.439314
      3          1           0        0.512090   -0.821053    0.276054
      4          1           0        1.968118   -0.188152   -0.124416
      5          1           0        0.664187    1.282584   -1.580053
      6          1           0       -0.504467    0.147614   -1.415591
 ---------------------------------------------------------------------
                    Distance matrix (angstroms):
                    1          2          3          4          5
     1  N    0.000000
     2  N    1.507926   0.000000
     3  H    1.028424   2.033981   0.000000
     4  H    1.031105   2.012176   1.637363   0.000000
     5  H    2.012176   1.031105   2.809546   2.445848   0.000000
     6  H    2.033981   1.028424   2.198492   2.809546   1.637363
                    6
     6  H    0.000000
 Stoichiometry    H4N2
 Framework group  C2[X(H4N2)]
 Deg. of freedom     7
 Full point group                 C2      NOp   2
 Omega: Change in point group or standard orientation.

 Old FWG=C02H [SGH(N2),X(H4)]
 New FWG=C02  [X(H4N2)]
 RotChk:  IX=0 Diff= 8.14D-02
 Largest Abelian subgroup         C2      NOp   2
 Largest concise Abelian subgroup C2      NOp   2
                         Standard orientation:                         
 ---------------------------------------------------------------------
 Center     Atomic      Atomic             Coordinates (Angstroms)
 Number     Number       Type             X           Y           Z
 ---------------------------------------------------------------------
      1          7           0        0.000000    0.753963   -0.022713
      2          7           0        0.000000   -0.753963   -0.022713
      3          1           0        0.407112    1.021079    0.883138
      4          1           0        0.717953    0.989993   -0.724148
      5          1           0       -0.717953   -0.989993   -0.724148
      6          1           0       -0.407112   -1.021079    0.883138
 ---------------------------------------------------------------------
 Rotational constants (GHZ):    135.1050719     23.6484850     22.0587256
 Leave Link  202 at Sat Feb 16 13:47:22 2019, MaxMem=   196608000 cpu:         0.4
 (Enter /cm/shared/c3ddb/gaussian/09.d01/g09/l301.exe)
 Standard basis: 6-31G (6D, 7F)
 Ernie: Thresh=  0.10000D-02 Tol=  0.10000D-05 Strict=F.
 There are    13 symmetry adapted cartesian basis functions of A   symmetry.
 There are    13 symmetry adapted cartesian basis functions of B   symmetry.
 There are    13 symmetry adapted basis functions of A   symmetry.
 There are    13 symmetry adapted basis functions of B   symmetry.
    26 basis functions,    60 primitive gaussians,    26 cartesian basis functions
     9 alpha electrons        9 beta electrons
       nuclear repulsion energy        40.3886226270 Hartrees.
 IExCor= 3630 DFT=T Ex+Corr=B97D ExCW=0 ScaHFX=  0.000000
 ScaDFX=  1.000000  1.000000  1.000000  1.000000 ScalE2=  1.000000  1.000000
 IRadAn=      0 IRanWt=     -1 IRanGd=            0 ICorTp=0 IEmpDi=121
 NAtoms=    6 NActive=    6 NUniq=    3 SFac= 4.00D+00 NAtFMM=   60 NAOKFM=F Big=F
 Integral buffers will be    131072 words long.
 Raffenetti 2 integral format.
 Two-electron integral symmetry is turned on.
 R6Disp:  Grimme-D2 Dispersion energy=       -0.0017700124 Hartrees.
 Nuclear repulsion after empirical dispersion term =       40.3868526146 Hartrees.
 Leave Link  301 at Sat Feb 16 13:47:22 2019, MaxMem=   196608000 cpu:         0.6
 (Enter /cm/shared/c3ddb/gaussian/09.d01/g09/l302.exe)
 NPDir=0 NMtPBC=     1 NCelOv=     1 NCel=       1 NClECP=     1 NCelD=      1
         NCelK=      1 NCelE2=     1 NClLst=     1 CellRange=     0.0.
 One-electron integrals computed using PRISM.
 One-electron integral symmetry used in STVInt
 NBasis=    26 RedAO= T EigKep=  1.47D-02  NBF=    13    13
 NBsUse=    26 1.00D-06 EigRej= -1.00D+00 NBFU=    13    13
 Precomputing XC quadrature grid using
 IXCGrd= 4 IRadAn=           0 IRanWt=          -1 IRanGd=           0 AccXCQ= 0.00D+00.
 Generated NRdTot=       0 NPtTot=           0 NUsed=           0 NTot=          32
 NSgBfM=    26    26    26    26    26 MxSgAt=     6 MxSgA2=     6.
 Leave Link  302 at Sat Feb 16 13:47:23 2019, MaxMem=   196608000 cpu:         2.6
 (Enter /cm/shared/c3ddb/gaussian/09.d01/g09/l303.exe)
 DipDrv:  MaxL=1.
 Leave Link  303 at Sat Feb 16 13:47:23 2019, MaxMem=   196608000 cpu:         0.3
 (Enter /cm/shared/c3ddb/gaussian/09.d01/g09/l401.exe)
 Initial guess from the checkpoint file:  "check.chk"
 B after Tr=     0.000000    0.000000    0.000000
         Rot=    0.999890    0.000000    0.000000    0.014850 Ang=   1.70 deg.
 Guess basis will be translated and rotated to current coordinates.
 JPrj=2 DoOrth=T DoCkMO=T.
 Initial guess orbital symmetries:
       Occupied  (B) (A) (A) (B) (A) (A) (B) (B) (A)
       Virtual   (A) (A) (A) (A) (A) (A) (A) (A) (B) (B) (B) (B)
                 (B) (B) (B) (B) (B)
 The electronic state of the initial guess is 1-A.
 Generating alternative initial guess.
 ExpMin= 1.61D-01 ExpMax= 4.17D+03 ExpMxC= 6.27D+02 IAcc=1 IRadAn=         1 AccDes= 0.00D+00
 Harris functional with IExCor= 3630 and IRadAn=       1 diagonalized for initial guess.
 HarFok:  IExCor= 3630 AccDes= 0.00D+00 IRadAn=         1 IDoV= 1 UseB2=F ITyADJ=14
 ICtDFT=  3500011 ScaDFX=  1.000000  1.000000  1.000000  1.000000
 FoFCou: FMM=F IPFlag=           0 FMFlag=      100000 FMFlg1=           0
         NFxFlg=           0 DoJE=T BraDBF=F KetDBF=T FulRan=T
         wScrn=  0.000000 ICntrl=     500 IOpCl=  0 I1Cent=   200000004 NGrid=           0
         NMat0=    1 NMatS0=      1 NMatT0=    0 NMatD0=    1 NMtDS0=    0 NMtDT0=    0
 Petite list used in FoFCou.
 Harris En= -111.784826272640    
 Leave Link  401 at Sat Feb 16 13:47:23 2019, MaxMem=   196608000 cpu:         1.9
 (Enter /cm/shared/c3ddb/gaussian/09.d01/g09/l502.exe)
 Closed shell SCF:
 Using DIIS extrapolation, IDIIS=  1040.
 Integral symmetry usage will be decided dynamically.
 Keep J ints in memory in symmetry-blocked form, NReq=930876.
 IVT=        8430 IEndB=        8430 NGot=   196608000 MDV=   196567669
 LenX=   196567669 LenY=   196566552
 Requested convergence on RMS density matrix=1.00D-08 within  64 cycles.
 Requested convergence on MAX density matrix=1.00D-06.
 Requested convergence on             energy=1.00D-06.
 No special actions if energy rises.
 FoFCou: FMM=F IPFlag=           0 FMFlag=           0 FMFlg1=           0
         NFxFlg=           0 DoJE=F BraDBF=F KetDBF=F FulRan=T
         wScrn=  0.000000 ICntrl=     600 IOpCl=  0 I1Cent=           0 NGrid=           0
         NMat0=    1 NMatS0=    351 NMatT0=    0 NMatD0=    1 NMtDS0=    0 NMtDT0=    0
 Petite list used in FoFCou.
 Integral accuracy reduced to 1.0D-05 until final iterations.

 Cycle   1  Pass 0  IDiag  1:
 E= -111.722238569881    
 DIIS: error= 1.66D-02 at cycle   1 NSaved=   1.
 NSaved= 1 IEnMin= 1 EnMin= -111.722238569881     IErMin= 1 ErrMin= 1.66D-02
 ErrMax= 1.66D-02  0.00D+00 EMaxC= 1.00D-01 BMatC= 9.25D-03 BMatP= 9.25D-03
 IDIUse=3 WtCom= 8.34D-01 WtEn= 1.66D-01
 Coeff-Com:  0.100D+01
 Coeff-En:   0.100D+01
 Coeff:      0.100D+01
 Recover alternate guess density for next cycle.
 RMSDP=1.16D-02 MaxDP=4.94D-02              OVMax= 0.00D+00

 Cycle   2  Pass 0  IDiag  1:
 E= -111.691070524272     Delta-E=        0.031168045609 Rises=F Damp=F
 Switch densities from cycles 1 and 2 for lowest energy.
 DIIS: error= 4.68D-02 at cycle   2 NSaved=   2.
 NSaved= 2 IEnMin= 1 EnMin= -111.722238569881     IErMin= 1 ErrMin= 1.66D-02
 ErrMax= 4.68D-02  0.00D+00 EMaxC= 1.00D+00 BMatC= 5.16D-02 BMatP= 9.25D-03
 IDIUse=1 WtCom= 1.00D+00 WtEn= 0.00D+00
 Coeff-Com:  0.899D+00 0.101D+00
 Coeff:      0.899D+00 0.101D+00
 Gap=     0.364 Goal=   None    Shift=    0.000
 RMSDP=9.85D-03 MaxDP=4.46D-02 DE= 3.12D-02 OVMax= 6.27D-02

 Cycle   3  Pass 0  IDiag  1:
 E= -111.739633345738     Delta-E=       -0.048562821465 Rises=F Damp=F
 DIIS: error= 1.03D-02 at cycle   3 NSaved=   3.
 NSaved= 3 IEnMin= 3 EnMin= -111.739633345738     IErMin= 3 ErrMin= 1.03D-02
 ErrMax= 1.03D-02  0.00D+00 EMaxC= 1.00D+00 BMatC= 3.00D-03 BMatP= 9.25D-03
 IDIUse=1 WtCom= 1.00D+00 WtEn= 0.00D+00
 Coeff-Com:  0.335D-01 0.181D+00 0.786D+00
 Coeff:      0.335D-01 0.181D+00 0.786D+00
 Gap=     0.192 Goal=   None    Shift=    0.000
 RMSDP=2.36D-03 MaxDP=1.32D-02 DE=-4.86D-02 OVMax= 1.55D-02

 Cycle   4  Pass 0  IDiag  1:
 E= -111.742424809502     Delta-E=       -0.002791463765 Rises=F Damp=F
 DIIS: error= 6.58D-04 at cycle   4 NSaved=   4.
 NSaved= 4 IEnMin= 4 EnMin= -111.742424809502     IErMin= 4 ErrMin= 6.58D-04
 ErrMax= 6.58D-04  0.00D+00 EMaxC= 1.00D+00 BMatC= 2.78D-05 BMatP= 3.00D-03
 IDIUse=1 WtCom= 1.00D+00 WtEn= 0.00D+00
 Coeff-Com: -0.140D-02 0.476D-01 0.212D+00 0.742D+00
 Coeff:     -0.140D-02 0.476D-01 0.212D+00 0.742D+00
 Gap=     0.193 Goal=   None    Shift=    0.000
 RMSDP=5.01D-04 MaxDP=1.95D-03 DE=-2.79D-03 OVMax= 3.23D-03

 Cycle   5  Pass 0  IDiag  1:
 E= -111.742470860141     Delta-E=       -0.000046050639 Rises=F Damp=F
 DIIS: error= 1.16D-04 at cycle   5 NSaved=   5.
 NSaved= 5 IEnMin= 5 EnMin= -111.742470860141     IErMin= 5 ErrMin= 1.16D-04
 ErrMax= 1.16D-04  0.00D+00 EMaxC= 1.00D+00 BMatC= 6.49D-07 BMatP= 2.78D-05
 IDIUse=1 WtCom= 1.00D+00 WtEn= 0.00D+00
 Coeff-Com: -0.466D-04 0.645D-02 0.258D-01 0.170D+00 0.797D+00
 Coeff:     -0.466D-04 0.645D-02 0.258D-01 0.170D+00 0.797D+00
 Gap=     0.193 Goal=   None    Shift=    0.000
 RMSDP=5.83D-05 MaxDP=2.30D-04 DE=-4.61D-05 OVMax= 3.65D-04

 Cycle   6  Pass 0  IDiag  1:
 E= -111.742471843686     Delta-E=       -0.000000983545 Rises=F Damp=F
 DIIS: error= 2.14D-05 at cycle   6 NSaved=   6.
 NSaved= 6 IEnMin= 6 EnMin= -111.742471843686     IErMin= 6 ErrMin= 2.14D-05
 ErrMax= 2.14D-05  0.00D+00 EMaxC= 1.00D+00 BMatC= 1.35D-08 BMatP= 6.49D-07
 IDIUse=1 WtCom= 1.00D+00 WtEn= 0.00D+00
 Coeff-Com: -0.317D-04 0.431D-03-0.126D-03 0.160D-01 0.131D+00 0.852D+00
 Coeff:     -0.317D-04 0.431D-03-0.126D-03 0.160D-01 0.131D+00 0.852D+00
 Gap=     0.193 Goal=   None    Shift=    0.000
 RMSDP=6.71D-06 MaxDP=3.76D-05 DE=-9.84D-07 OVMax= 4.22D-05

 Initial convergence to 1.0D-05 achieved.  Increase integral accuracy.
 Cycle   7  Pass 1  IDiag  1:
 E= -111.742500552855     Delta-E=       -0.000028709169 Rises=F Damp=F
 DIIS: error= 4.98D-06 at cycle   1 NSaved=   1.
 NSaved= 1 IEnMin= 1 EnMin= -111.742500552855     IErMin= 1 ErrMin= 4.98D-06
 ErrMax= 4.98D-06  0.00D+00 EMaxC= 1.00D+00 BMatC= 1.13D-09 BMatP= 1.13D-09
 IDIUse=1 WtCom= 1.00D+00 WtEn= 0.00D+00
 Coeff-Com:  0.100D+01
 Coeff:      0.100D+01
 Gap=     0.193 Goal=   None    Shift=    0.000
 RMSDP=6.71D-06 MaxDP=3.76D-05 DE=-2.87D-05 OVMax= 1.94D-05

 Cycle   8  Pass 1  IDiag  1:
 E= -111.742500554126     Delta-E=       -0.000000001271 Rises=F Damp=F
 DIIS: error= 2.95D-06 at cycle   2 NSaved=   2.
 NSaved= 2 IEnMin= 2 EnMin= -111.742500554126     IErMin= 2 ErrMin= 2.95D-06
 ErrMax= 2.95D-06  0.00D+00 EMaxC= 1.00D+00 BMatC= 2.40D-10 BMatP= 1.13D-09
 IDIUse=1 WtCom= 1.00D+00 WtEn= 0.00D+00
 Coeff-Com:  0.261D+00 0.739D+00
 Coeff:      0.261D+00 0.739D+00
 Gap=     0.193 Goal=   None    Shift=    0.000
 RMSDP=9.97D-07 MaxDP=6.15D-06 DE=-1.27D-09 OVMax= 6.80D-06

 Cycle   9  Pass 1  IDiag  1:
 E= -111.742500554207     Delta-E=       -0.000000000080 Rises=F Damp=F
 DIIS: error= 2.55D-06 at cycle   3 NSaved=   3.
 NSaved= 3 IEnMin= 3 EnMin= -111.742500554207     IErMin= 3 ErrMin= 2.55D-06
 ErrMax= 2.55D-06  0.00D+00 EMaxC= 1.00D+00 BMatC= 1.68D-10 BMatP= 2.40D-10
 IDIUse=1 WtCom= 1.00D+00 WtEn= 0.00D+00
 Coeff-Com:  0.335D-01 0.457D+00 0.510D+00
 Coeff:      0.335D-01 0.457D+00 0.510D+00
 Gap=     0.193 Goal=   None    Shift=    0.000
 RMSDP=4.61D-07 MaxDP=2.93D-06 DE=-8.04D-11 OVMax= 3.00D-06

 Cycle  10  Pass 1  IDiag  1:
 E= -111.742500554361     Delta-E=       -0.000000000155 Rises=F Damp=F
 DIIS: error= 9.94D-08 at cycle   4 NSaved=   4.
 NSaved= 4 IEnMin= 4 EnMin= -111.742500554361     IErMin= 4 ErrMin= 9.94D-08
 ErrMax= 9.94D-08  0.00D+00 EMaxC= 1.00D+00 BMatC= 4.26D-13 BMatP= 1.68D-10
 IDIUse=1 WtCom= 1.00D+00 WtEn= 0.00D+00
 Coeff-Com:  0.159D-02 0.899D-01 0.116D+00 0.792D+00
 Coeff:      0.159D-02 0.899D-01 0.116D+00 0.792D+00
 Gap=     0.193 Goal=   None    Shift=    0.000
 RMSDP=5.66D-08 MaxDP=2.06D-07 DE=-1.55D-10 OVMax= 3.52D-07

 Cycle  11  Pass 1  IDiag  1:
 E= -111.742500554362     Delta-E=       -0.000000000001 Rises=F Damp=F
 DIIS: error= 2.03D-08 at cycle   5 NSaved=   5.
 NSaved= 5 IEnMin= 5 EnMin= -111.742500554362     IErMin= 5 ErrMin= 2.03D-08
 ErrMax= 2.03D-08  0.00D+00 EMaxC= 1.00D+00 BMatC= 2.24D-14 BMatP= 4.26D-13
 IDIUse=1 WtCom= 1.00D+00 WtEn= 0.00D+00
 Coeff-Com: -0.147D-04 0.174D-01 0.231D-01 0.252D+00 0.707D+00
 Coeff:     -0.147D-04 0.174D-01 0.231D-01 0.252D+00 0.707D+00
 Gap=     0.193 Goal=   None    Shift=    0.000
 RMSDP=1.20D-08 MaxDP=4.75D-08 DE=-7.11D-13 OVMax= 7.67D-08

 Cycle  12  Pass 1  IDiag  1:
 E= -111.742500554362     Delta-E=        0.000000000000 Rises=F Damp=F
 DIIS: error= 6.76D-10 at cycle   6 NSaved=   6.
 NSaved= 6 IEnMin= 5 EnMin= -111.742500554362     IErMin= 6 ErrMin= 6.76D-10
 ErrMax= 6.76D-10  0.00D+00 EMaxC= 1.00D+00 BMatC= 1.00D-17 BMatP= 2.24D-14
 IDIUse=1 WtCom= 1.00D+00 WtEn= 0.00D+00
 Coeff-Com: -0.101D-04 0.184D-02 0.248D-02 0.273D-01 0.809D-01 0.887D+00
 Coeff:     -0.101D-04 0.184D-02 0.248D-02 0.273D-01 0.809D-01 0.887D+00
 Gap=     0.193 Goal=   None    Shift=    0.000
 RMSDP=3.17D-10 MaxDP=1.96D-09 DE= 5.68D-14 OVMax= 2.25D-09

 SCF Done:  E(RB97D) =  -111.742500554     A.U. after   12 cycles
            NFock= 12  Conv=0.32D-09     -V/T= 2.0047
 KE= 1.112223583470D+02 PE=-3.422385595052D+02 EE= 7.888684798915D+01
 Leave Link  502 at Sat Feb 16 13:47:26 2019, MaxMem=   196608000 cpu:        21.4
 (Enter /cm/shared/c3ddb/gaussian/09.d01/g09/l508.exe)
 QCSCF skips out because SCF is already converged.
 Leave Link  508 at Sat Feb 16 13:47:26 2019, MaxMem=   196608000 cpu:         0.0
 (Enter /cm/shared/c3ddb/gaussian/09.d01/g09/l701.exe)
 Compute integral first derivatives.
 ... and contract with generalized density number  0.
 R6Disp: Adding Grimme-D2 dispersion energy 1st derivatives to the gradient.
 Leave Link  701 at Sat Feb 16 13:47:27 2019, MaxMem=   196608000 cpu:         2.6
 (Enter /cm/shared/c3ddb/gaussian/09.d01/g09/l702.exe)
 L702 exits ... SP integral derivatives will be done elsewhere.
 Leave Link  702 at Sat Feb 16 13:47:27 2019, MaxMem=   196608000 cpu:         0.3
 (Enter /cm/shared/c3ddb/gaussian/09.d01/g09/l703.exe)
 Compute integral first derivatives, UseDBF=F ICtDFT=           0.
 Integral derivatives from FoFJK, PRISM(SPDF).
 Calling FoFJK, ICntrl=      2527 FMM=F ISym2X=1 I1Cent= 0 IOpClX= 0 NMat=1 NMatS=1 NMatT=0.
 FoFJK:  IHMeth= 1 ICntrl=    2527 DoSepK=F KAlg= 0 I1Cent=   0 FoldK=F
 IRaf=         0 NMat=   1 IRICut=       1 DoRegI=T DoRafI=F ISym2E= 1.
 FoFCou: FMM=F IPFlag=           0 FMFlag=      100000 FMFlg1=         800
         NFxFlg=           0 DoJE=F BraDBF=F KetDBF=F FulRan=T
         wScrn=  0.000000 ICntrl=    2527 IOpCl=  0 I1Cent=           0 NGrid=           0
         NMat0=    1 NMatS0=      1 NMatT0=    0 NMatD0=    1 NMtDS0=    0 NMtDT0=    0
 Petite list used in FoFCou.
 Leave Link  703 at Sat Feb 16 13:47:27 2019, MaxMem=   196608000 cpu:         1.5
 (Enter /cm/shared/c3ddb/gaussian/09.d01/g09/l716.exe)
 Dipole        = 1.11022302D-16 1.77635684D-15 2.91033674D-01
 ***** Axes restored to original set *****
 -------------------------------------------------------------------
 Center     Atomic                   Forces (Hartrees/Bohr)
 Number     Number              X              Y              Z
 -------------------------------------------------------------------
      1        7           0.005763126   -0.004518415    0.004762160
      2        7          -0.003503505    0.006040397   -0.005248517
      3        1          -0.000529317   -0.000695624    0.001850648
      4        1          -0.000419227    0.000926035    0.002337147
      5        1           0.000021184   -0.001194139   -0.002251473
      6        1          -0.001332261   -0.000558253   -0.001449966
 -------------------------------------------------------------------
 Cartesian Forces:  Max     0.006040397 RMS     0.003108990
 Leave Link  716 at Sat Feb 16 13:47:27 2019, MaxMem=   196608000 cpu:         0.3
 (Enter /cm/shared/c3ddb/gaussian/09.d01/g09/l103.exe)

 GradGradGradGradGradGradGradGradGradGradGradGradGradGradGradGradGradGrad
 Berny optimization.
 Using GEDIIS/GDIIS optimizer.
 FormGI is forming the generalized inverse of G from B-inverse, IUseBI=4.
 Internal  Forces:  Max     0.010510791 RMS     0.003372747
 Search for a local minimum.
 Step number   2 out of a maximum of   25
 All quantities printed in internal units (Hartrees-Bohrs-Radians)
 RMS Force = .33727D-02 SwitMx=.10000D-02 MixMth= 1
 Mixed Optimization -- RFO/linear search
 Update second derivatives using D2CorX and points    1    2
 DE= -5.33D-03 DEPred=-6.81D-03 R= 7.83D-01
 TightC=F SS=  1.41D+00  RLast= 8.08D-01 DXNew= 5.0454D-01 2.4248D+00
 Trust test= 7.83D-01 RLast= 8.08D-01 DXMaxT set to 5.05D-01
 The second derivative matrix:
                          R1        R2        R3        R4        R5
           R1           0.30726
           R2          -0.00007   0.41090
           R3           0.00191  -0.00596   0.41028
           R4           0.00191  -0.00206   0.00058   0.41028
           R5          -0.00007   0.00120  -0.00206  -0.00596   0.41090
           A1           0.06443   0.01344  -0.00075   0.00180   0.00129
           A2           0.06282   0.00297   0.01020  -0.00196   0.00551
           A3          -0.04658   0.01276   0.01500  -0.00082  -0.00305
           A4           0.06282   0.00551  -0.00196   0.01020   0.00297
           A5           0.06443   0.00129   0.00180  -0.00075   0.01344
           A6          -0.04658  -0.00305  -0.00082   0.01500   0.01276
           D1          -0.00441  -0.01297  -0.01171   0.01359   0.01233
           D2          -0.02565  -0.01297  -0.01055  -0.01055  -0.01297
           D3           0.01682   0.01233   0.01243   0.01243   0.01233
           D4          -0.00441   0.01233   0.01359  -0.01171  -0.01297
                          A1        A2        A3        A4        A5
           A1           0.16287
           A2          -0.03505   0.16810
           A3          -0.05155  -0.05325   0.06376
           A4           0.02983  -0.00506  -0.00467   0.16810
           A5          -0.01029   0.02983  -0.00297  -0.03505   0.16287
           A6          -0.00297  -0.00467   0.00087  -0.05325  -0.05155
           D1           0.00180  -0.00169  -0.01163   0.00423   0.00772
           D2          -0.00409  -0.00843  -0.00962  -0.00843  -0.00409
           D3           0.01361   0.01098   0.00480   0.01098   0.01361
           D4           0.00772   0.00423   0.00682  -0.00169   0.00180
                          A6        D1        D2        D3        D4
           A6           0.06376
           D1           0.00682   0.01366
           D2          -0.00962  -0.00197   0.01668
           D3           0.00480  -0.00061  -0.02061   0.01939
           D4          -0.01163  -0.01623  -0.00197  -0.00061   0.01366
 ITU=  1  0
 Use linear search instead of GDIIS.
     Eigenvalues ---   -0.00813   0.03752   0.04764   0.10279   0.15531
     Eigenvalues ---    0.16356   0.23680   0.39949   0.41090   0.41416
     Eigenvalues ---    0.41483   0.42095
 Eigenvalue     1 is  -8.13D-03 should be greater than     0.000000 Eigenvector:
                          D2        D1        D4        D3        R1
   1                   -0.51303  -0.49291  -0.49291  -0.47279  -0.08875
                          A1        A5        A2        A4        A6
   1                    0.08657   0.08657   0.04070   0.04070  -0.02312
 RFO step:  Lambda=-8.15590167D-03 EMin=-8.12815273D-03
 I=     1 Eig=   -8.13D-03 Dot1= -2.76D-04
 I=     1 Stepn= -6.00D-01 RXN=   6.00D-01 EDone=F
 Mixed    1 eigenvectors in step.  Raw Step.Grad=  2.76D-04.
 RFO eigenvector is Hessian eigenvector with negative curvature.
 Taking step of  6.00D-01 in eigenvector direction(s).  Step.Grad=  1.82D-03.
 Quartic linear search produced a step of -0.06052.
 Iteration  1 RMS(Cart)=  0.09041343 RMS(Int)=  0.06278472
 Iteration  2 RMS(Cart)=  0.05280605 RMS(Int)=  0.00180217
 Iteration  3 RMS(Cart)=  0.00163357 RMS(Int)=  0.00008596
 Iteration  4 RMS(Cart)=  0.00000038 RMS(Int)=  0.00008596
 ITry= 1 IFail=0 DXMaxC= 2.53D-01 DCOld= 1.00D+10 DXMaxT= 5.05D-01 DXLimC= 3.00D+00 Rises=F
 ClnCor:  largest displacement from symmetrization is 4.59D-12 for atom     2.
 Variable       Old X    -DE/DX   Delta X   Delta X   Delta X     New X
                                 (Linear)    (Quad)   (Total)
    R1        2.84957   0.01051  -0.00765   0.05325   0.04561   2.89517
    R2        1.94344   0.00136  -0.00027   0.00358   0.00332   1.94676
    R3        1.94851  -0.00086  -0.00057  -0.00203  -0.00260   1.94591
    R4        1.94851  -0.00086  -0.00057  -0.00203  -0.00260   1.94591
    R5        1.94344   0.00136  -0.00027   0.00358   0.00332   1.94676
    A1        1.83354   0.00254   0.00623  -0.05194  -0.04566   1.78788
    A2        1.80175   0.00413   0.00816  -0.02442  -0.01621   1.78554
    A3        1.83807  -0.00044  -0.00105   0.01387   0.01299   1.85106
    A4        1.80175   0.00413   0.00816  -0.02442  -0.01621   1.78554
    A5        1.83354   0.00254   0.00623  -0.05194  -0.04566   1.78788
    A6        1.83807  -0.00044  -0.00105   0.01387   0.01299   1.85106
    D1        2.76693   0.00015   0.02268   0.29575   0.31842   3.08536
    D2        0.84475  -0.00180   0.01702   0.30782   0.32499   1.16974
    D3       -1.59407   0.00209   0.02833   0.28367   0.31185  -1.28222
    D4        2.76693   0.00015   0.02268   0.29575   0.31842   3.08536
         Item               Value     Threshold  Converged?
 Maximum Force            0.010511     0.000450     NO 
 RMS     Force            0.003373     0.000300     NO 
 Maximum Displacement     0.253106     0.001800     NO 
 RMS     Displacement     0.140628     0.001200     NO 
 Predicted change in Energy=-1.924382D-03
 Lowest energy point so far.  Saving SCF results.
 GradGradGradGradGradGradGradGradGradGradGradGradGradGradGradGradGradGrad

 Leave Link  103 at Sat Feb 16 13:47:28 2019, MaxMem=   196608000 cpu:         9.1
 (Enter /cm/shared/c3ddb/gaussian/09.d01/g09/l202.exe)
                          Input orientation:                          
 ---------------------------------------------------------------------
 Center     Atomic      Atomic             Coordinates (Angstroms)
 Number     Number       Type             X           Y           Z
 ---------------------------------------------------------------------
      1          7           0        0.921552    0.027732    0.006208
      2          7           0        0.471728    0.232147   -1.443992
      3          1           0        0.577937   -0.921082    0.213456
      4          1           0        1.943450   -0.054213   -0.090497
      5          1           0        0.766517    1.200955   -1.630688
      6          1           0       -0.554388    0.258371   -1.356421
 ---------------------------------------------------------------------
                    Distance matrix (angstroms):
                    1          2          3          4          5
     1  N    0.000000
     2  N    1.532060   0.000000
     3  H    1.030180   2.021968   0.000000
     4  H    1.029730   2.019880   1.645745   0.000000
     5  H    2.019880   1.029730   2.817707   2.309287   0.000000
     6  H    2.021968   1.030180   2.266669   2.817707   1.645745
                    6
     6  H    0.000000
 Stoichiometry    H4N2
 Framework group  C2[X(H4N2)]
 Deg. of freedom     7
 Full point group                 C2      NOp   2
 RotChk:  IX=0 Diff= 2.25D-02
 Largest Abelian subgroup         C2      NOp   2
 Largest concise Abelian subgroup C2      NOp   2
                         Standard orientation:                         
 ---------------------------------------------------------------------
 Center     Atomic      Atomic             Coordinates (Angstroms)
 Number     Number       Type             X           Y           Z
 ---------------------------------------------------------------------
      1          7           0        0.000000    0.766030   -0.003609
      2          7           0        0.000000   -0.766030   -0.003609
      3          1           0        0.555406    0.987913    0.835178
      4          1           0        0.601720    0.985462   -0.809913
      5          1           0       -0.601720   -0.985462   -0.809913
      6          1           0       -0.555406   -0.987913    0.835178
 ---------------------------------------------------------------------
 Rotational constants (GHZ):    132.8067116     23.2782850     21.6327000
 Leave Link  202 at Sat Feb 16 13:47:29 2019, MaxMem=   196608000 cpu:         0.3
 (Enter /cm/shared/c3ddb/gaussian/09.d01/g09/l301.exe)
 Standard basis: 6-31G (6D, 7F)
 Ernie: Thresh=  0.10000D-02 Tol=  0.10000D-05 Strict=F.
 There are    13 symmetry adapted cartesian basis functions of A   symmetry.
 There are    13 symmetry adapted cartesian basis functions of B   symmetry.
 There are    13 symmetry adapted basis functions of A   symmetry.
 There are    13 symmetry adapted basis functions of B   symmetry.
    26 basis functions,    60 primitive gaussians,    26 cartesian basis functions
     9 alpha electrons        9 beta electrons
       nuclear repulsion energy        40.1238354210 Hartrees.
 IExCor= 3630 DFT=T Ex+Corr=B97D ExCW=0 ScaHFX=  0.000000
 ScaDFX=  1.000000  1.000000  1.000000  1.000000 ScalE2=  1.000000  1.000000
 IRadAn=      0 IRanWt=     -1 IRanGd=            0 ICorTp=0 IEmpDi=121
 NAtoms=    6 NActive=    6 NUniq=    3 SFac= 4.00D+00 NAtFMM=   60 NAOKFM=F Big=F
 Integral buffers will be    131072 words long.
 Raffenetti 2 integral format.
 Two-electron integral symmetry is turned on.
 R6Disp:  Grimme-D2 Dispersion energy=       -0.0018226136 Hartrees.
 Nuclear repulsion after empirical dispersion term =       40.1220128073 Hartrees.
 Leave Link  301 at Sat Feb 16 13:47:29 2019, MaxMem=   196608000 cpu:         0.6
 (Enter /cm/shared/c3ddb/gaussian/09.d01/g09/l302.exe)
 NPDir=0 NMtPBC=     1 NCelOv=     1 NCel=       1 NClECP=     1 NCelD=      1
         NCelK=      1 NCelE2=     1 NClLst=     1 CellRange=     0.0.
 One-electron integrals computed using PRISM.
 One-electron integral symmetry used in STVInt
 NBasis=    26 RedAO= T EigKep=  1.50D-02  NBF=    13    13
 NBsUse=    26 1.00D-06 EigRej= -1.00D+00 NBFU=    13    13
 Precomputing XC quadrature grid using
 IXCGrd= 4 IRadAn=           0 IRanWt=          -1 IRanGd=           0 AccXCQ= 0.00D+00.
 Generated NRdTot=       0 NPtTot=           0 NUsed=           0 NTot=          32
 NSgBfM=    26    26    26    26    26 MxSgAt=     6 MxSgA2=     6.
 Leave Link  302 at Sat Feb 16 13:47:29 2019, MaxMem=   196608000 cpu:         2.7
 (Enter /cm/shared/c3ddb/gaussian/09.d01/g09/l303.exe)
 DipDrv:  MaxL=1.
 Leave Link  303 at Sat Feb 16 13:47:29 2019, MaxMem=   196608000 cpu:         0.3
 (Enter /cm/shared/c3ddb/gaussian/09.d01/g09/l401.exe)
 Initial guess from the checkpoint file:  "check.chk"
 B after Tr=     0.000000    0.000000    0.000000
         Rot=    0.999992    0.000000    0.000000    0.003972 Ang=   0.46 deg.
 Guess basis will be translated and rotated to current coordinates.
 JPrj=2 DoOrth=T DoCkMO=T.
 Initial guess orbital symmetries:
       Occupied  (B) (A) (A) (B) (A) (A) (B) (B) (A)
       Virtual   (A) (A) (A) (A) (A) (A) (A) (A) (B) (B) (B) (B)
                 (B) (B) (B) (B) (B)
 The electronic state of the initial guess is 1-A.
 Generating alternative initial guess.
 ExpMin= 1.61D-01 ExpMax= 4.17D+03 ExpMxC= 6.27D+02 IAcc=1 IRadAn=         1 AccDes= 0.00D+00
 Harris functional with IExCor= 3630 and IRadAn=       1 diagonalized for initial guess.
 HarFok:  IExCor= 3630 AccDes= 0.00D+00 IRadAn=         1 IDoV= 1 UseB2=F ITyADJ=14
 ICtDFT=  3500011 ScaDFX=  1.000000  1.000000  1.000000  1.000000
 FoFCou: FMM=F IPFlag=           0 FMFlag=      100000 FMFlg1=           0
         NFxFlg=           0 DoJE=T BraDBF=F KetDBF=T FulRan=T
         wScrn=  0.000000 ICntrl=     500 IOpCl=  0 I1Cent=   200000004 NGrid=           0
         NMat0=    1 NMatS0=      1 NMatT0=    0 NMatD0=    1 NMtDS0=    0 NMtDT0=    0
 Petite list used in FoFCou.
 Harris En= -111.783468976685    
 Leave Link  401 at Sat Feb 16 13:47:30 2019, MaxMem=   196608000 cpu:         2.0
 (Enter /cm/shared/c3ddb/gaussian/09.d01/g09/l502.exe)
 Closed shell SCF:
 Using DIIS extrapolation, IDIIS=  1040.
 Integral symmetry usage will be decided dynamically.
 Keep J ints in memory in symmetry-blocked form, NReq=930876.
 IVT=        8430 IEndB=        8430 NGot=   196608000 MDV=   196567669
 LenX=   196567669 LenY=   196566552
 Requested convergence on RMS density matrix=1.00D-08 within  64 cycles.
 Requested convergence on MAX density matrix=1.00D-06.
 Requested convergence on             energy=1.00D-06.
 No special actions if energy rises.
 FoFCou: FMM=F IPFlag=           0 FMFlag=           0 FMFlg1=           0
         NFxFlg=           0 DoJE=F BraDBF=F KetDBF=F FulRan=T
         wScrn=  0.000000 ICntrl=     600 IOpCl=  0 I1Cent=           0 NGrid=           0
         NMat0=    1 NMatS0=    351 NMatT0=    0 NMatD0=    1 NMtDS0=    0 NMtDT0=    0
 Petite list used in FoFCou.
 Integral accuracy reduced to 1.0D-05 until final iterations.

 Cycle   1  Pass 0  IDiag  1:
 E= -111.731845898985    
 DIIS: error= 1.58D-02 at cycle   1 NSaved=   1.
 NSaved= 1 IEnMin= 1 EnMin= -111.731845898985     IErMin= 1 ErrMin= 1.58D-02
 ErrMax= 1.58D-02  0.00D+00 EMaxC= 1.00D-01 BMatC= 4.64D-03 BMatP= 4.64D-03
 IDIUse=3 WtCom= 8.42D-01 WtEn= 1.58D-01
 Coeff-Com:  0.100D+01
 Coeff-En:   0.100D+01
 Coeff:      0.100D+01
 Recover alternate guess density for next cycle.
 RMSDP=1.02D-02 MaxDP=4.78D-02              OVMax= 0.00D+00

 Cycle   2  Pass 0  IDiag  1:
 E= -111.692997270340     Delta-E=        0.038848628645 Rises=F Damp=F
 Switch densities from cycles 1 and 2 for lowest energy.
 DIIS: error= 4.60D-02 at cycle   2 NSaved=   2.
 NSaved= 2 IEnMin= 1 EnMin= -111.731845898985     IErMin= 1 ErrMin= 1.58D-02
 ErrMax= 4.60D-02  0.00D+00 EMaxC= 1.00D+00 BMatC= 4.95D-02 BMatP= 4.64D-03
 IDIUse=1 WtCom= 1.00D+00 WtEn= 0.00D+00
 Coeff-Com:  0.935D+00 0.653D-01
 Coeff:      0.935D+00 0.653D-01
 Gap=     0.357 Goal=   None    Shift=    0.000
 RMSDP=6.82D-03 MaxDP=3.06D-02 DE= 3.88D-02 OVMax= 3.37D-02

 Cycle   3  Pass 0  IDiag  1:
 E= -111.741616830018     Delta-E=       -0.048619559678 Rises=F Damp=F
 DIIS: error= 5.52D-03 at cycle   3 NSaved=   3.
 NSaved= 3 IEnMin= 3 EnMin= -111.741616830018     IErMin= 3 ErrMin= 5.52D-03
 ErrMax= 5.52D-03  0.00D+00 EMaxC= 1.00D+00 BMatC= 8.50D-04 BMatP= 4.64D-03
 IDIUse=1 WtCom= 1.00D+00 WtEn= 0.00D+00
 Coeff-Com:  0.396D-01 0.104D+00 0.856D+00
 Coeff:      0.396D-01 0.104D+00 0.856D+00
 Gap=     0.195 Goal=   None    Shift=    0.000
 RMSDP=1.61D-03 MaxDP=6.32D-03 DE=-4.86D-02 OVMax= 1.05D-02

 Cycle   4  Pass 0  IDiag  1:
 E= -111.742444787314     Delta-E=       -0.000827957296 Rises=F Damp=F
 DIIS: error= 6.37D-04 at cycle   4 NSaved=   4.
 NSaved= 4 IEnMin= 4 EnMin= -111.742444787314     IErMin= 4 ErrMin= 6.37D-04
 ErrMax= 6.37D-04  0.00D+00 EMaxC= 1.00D+00 BMatC= 1.91D-05 BMatP= 8.50D-04
 IDIUse=1 WtCom= 1.00D+00 WtEn= 0.00D+00
 Coeff-Com: -0.137D-03 0.307D-01 0.260D+00 0.710D+00
 Coeff:     -0.137D-03 0.307D-01 0.260D+00 0.710D+00
 Gap=     0.195 Goal=   None    Shift=    0.000
 RMSDP=4.01D-04 MaxDP=1.67D-03 DE=-8.28D-04 OVMax= 2.64D-03

 Cycle   5  Pass 0  IDiag  1:
 E= -111.742477027687     Delta-E=       -0.000032240374 Rises=F Damp=F
 DIIS: error= 8.24D-05 at cycle   5 NSaved=   5.
 NSaved= 5 IEnMin= 5 EnMin= -111.742477027687     IErMin= 5 ErrMin= 8.24D-05
 ErrMax= 8.24D-05  0.00D+00 EMaxC= 1.00D+00 BMatC= 2.61D-07 BMatP= 1.91D-05
 IDIUse=1 WtCom= 1.00D+00 WtEn= 0.00D+00
 Coeff-Com: -0.991D-04 0.438D-02 0.345D-01 0.153D+00 0.808D+00
 Coeff:     -0.991D-04 0.438D-02 0.345D-01 0.153D+00 0.808D+00
 Gap=     0.195 Goal=   None    Shift=    0.000
 RMSDP=3.49D-05 MaxDP=1.31D-04 DE=-3.22D-05 OVMax= 2.55D-04

 Cycle   6  Pass 0  IDiag  1:
 E= -111.742477424702     Delta-E=       -0.000000397015 Rises=F Damp=F
 DIIS: error= 1.26D-05 at cycle   6 NSaved=   6.
 NSaved= 6 IEnMin= 6 EnMin= -111.742477424702     IErMin= 6 ErrMin= 1.26D-05
 ErrMax= 1.26D-05  0.00D+00 EMaxC= 1.00D+00 BMatC= 4.75D-09 BMatP= 2.61D-07
 IDIUse=1 WtCom= 1.00D+00 WtEn= 0.00D+00
 Coeff-Com: -0.313D-04 0.295D-03 0.289D-03 0.105D-01 0.110D+00 0.879D+00
 Coeff:     -0.313D-04 0.295D-03 0.289D-03 0.105D-01 0.110D+00 0.879D+00
 Gap=     0.195 Goal=   None    Shift=    0.000
 RMSDP=4.08D-06 MaxDP=2.46D-05 DE=-3.97D-07 OVMax= 2.54D-05

 Initial convergence to 1.0D-05 achieved.  Increase integral accuracy.
 Cycle   7  Pass 1  IDiag  1:
 E= -111.742495713041     Delta-E=       -0.000018288339 Rises=F Damp=F
 DIIS: error= 5.76D-06 at cycle   1 NSaved=   1.
 NSaved= 1 IEnMin= 1 EnMin= -111.742495713041     IErMin= 1 ErrMin= 5.76D-06
 ErrMax= 5.76D-06  0.00D+00 EMaxC= 1.00D+00 BMatC= 1.14D-09 BMatP= 1.14D-09
 IDIUse=1 WtCom= 1.00D+00 WtEn= 0.00D+00
 Coeff-Com:  0.100D+01
 Coeff:      0.100D+01
 Gap=     0.195 Goal=   None    Shift=    0.000
 RMSDP=4.08D-06 MaxDP=2.46D-05 DE=-1.83D-05 OVMax= 1.96D-05

 Cycle   8  Pass 1  IDiag  1:
 E= -111.742495714647     Delta-E=       -0.000000001606 Rises=F Damp=F
 DIIS: error= 5.14D-07 at cycle   2 NSaved=   2.
 NSaved= 2 IEnMin= 2 EnMin= -111.742495714647     IErMin= 2 ErrMin= 5.14D-07
 ErrMax= 5.14D-07  0.00D+00 EMaxC= 1.00D+00 BMatC= 1.03D-11 BMatP= 1.14D-09
 IDIUse=1 WtCom= 1.00D+00 WtEn= 0.00D+00
 Coeff-Com:  0.296D-01 0.970D+00
 Coeff:      0.296D-01 0.970D+00
 Gap=     0.195 Goal=   None    Shift=    0.000
 RMSDP=2.58D-07 MaxDP=1.12D-06 DE=-1.61D-09 OVMax= 2.50D-06

 Cycle   9  Pass 1  IDiag  1:
 E= -111.742495714654     Delta-E=       -0.000000000007 Rises=F Damp=F
 DIIS: error= 4.69D-07 at cycle   3 NSaved=   3.
 NSaved= 3 IEnMin= 3 EnMin= -111.742495714654     IErMin= 3 ErrMin= 4.69D-07
 ErrMax= 4.69D-07  0.00D+00 EMaxC= 1.00D+00 BMatC= 5.88D-12 BMatP= 1.03D-11
 IDIUse=1 WtCom= 1.00D+00 WtEn= 0.00D+00
 Coeff-Com:  0.612D-02 0.422D+00 0.571D+00
 Coeff:      0.612D-02 0.422D+00 0.571D+00
 Gap=     0.195 Goal=   None    Shift=    0.000
 RMSDP=1.27D-07 MaxDP=7.86D-07 DE=-6.96D-12 OVMax= 7.95D-07

 Cycle  10  Pass 1  IDiag  1:
 E= -111.742495714659     Delta-E=       -0.000000000005 Rises=F Damp=F
 DIIS: error= 2.10D-07 at cycle   4 NSaved=   4.
 NSaved= 4 IEnMin= 4 EnMin= -111.742495714659     IErMin= 4 ErrMin= 2.10D-07
 ErrMax= 2.10D-07  0.00D+00 EMaxC= 1.00D+00 BMatC= 1.10D-12 BMatP= 5.88D-12
 IDIUse=1 WtCom= 1.00D+00 WtEn= 0.00D+00
 Coeff-Com: -0.590D-03 0.750D-01 0.319D+00 0.606D+00
 Coeff:     -0.590D-03 0.750D-01 0.319D+00 0.606D+00
 Gap=     0.195 Goal=   None    Shift=    0.000
 RMSDP=3.58D-08 MaxDP=2.15D-07 DE=-4.72D-12 OVMax= 2.42D-07

 Cycle  11  Pass 1  IDiag  1:
 E= -111.742495714660     Delta-E=       -0.000000000001 Rises=F Damp=F
 DIIS: error= 6.45D-09 at cycle   5 NSaved=   5.
 NSaved= 5 IEnMin= 5 EnMin= -111.742495714660     IErMin= 5 ErrMin= 6.45D-09
 ErrMax= 6.45D-09  0.00D+00 EMaxC= 1.00D+00 BMatC= 1.32D-15 BMatP= 1.10D-12
 IDIUse=1 WtCom= 1.00D+00 WtEn= 0.00D+00
 Coeff-Com: -0.107D-03 0.149D-01 0.765D-01 0.140D+00 0.769D+00
 Coeff:     -0.107D-03 0.149D-01 0.765D-01 0.140D+00 0.769D+00
 Gap=     0.195 Goal=   None    Shift=    0.000
 RMSDP=3.48D-09 MaxDP=1.96D-08 DE=-9.09D-13 OVMax= 2.43D-08

 SCF Done:  E(RB97D) =  -111.742495715     A.U. after   11 cycles
            NFock= 11  Conv=0.35D-08     -V/T= 2.0048
 KE= 1.112082507852D+02 PE=-3.416972237712D+02 EE= 7.862446446397D+01
 Leave Link  502 at Sat Feb 16 13:47:30 2019, MaxMem=   196608000 cpu:         3.4
 (Enter /cm/shared/c3ddb/gaussian/09.d01/g09/l508.exe)
 QCSCF skips out because SCF is already converged.
[...]
 Coeff:      0.439D-01 0.956D+00
 Gap=     0.194 Goal=   None    Shift=    0.000
 RMSDP=1.30D-05 MaxDP=5.30D-05 DE=-9.18D-07 OVMax= 9.41D-05

 Cycle   3  Pass 1  IDiag  1:
 E= -111.742846502755     Delta-E=       -0.000000011974 Rises=F Damp=F
 DIIS: error= 7.23D-06 at cycle   3 NSaved=   3.
 NSaved= 3 IEnMin= 3 EnMin= -111.742846502755     IErMin= 3 ErrMin= 7.23D-06
 ErrMax= 7.23D-06  0.00D+00 EMaxC= 1.00D-01 BMatC= 2.79D-09 BMatP= 8.91D-09
 IDIUse=1 WtCom= 1.00D+00 WtEn= 0.00D+00
 Coeff-Com:  0.162D-02 0.352D+00 0.646D+00
 Coeff:      0.162D-02 0.352D+00 0.646D+00
 Gap=     0.194 Goal=   None    Shift=    0.000
 RMSDP=4.06D-06 MaxDP=1.63D-05 DE=-1.20D-08 OVMax= 2.54D-05

 Cycle   4  Pass 1  IDiag  1:
 E= -111.742846506732     Delta-E=       -0.000000003978 Rises=F Damp=F
 DIIS: error= 3.37D-06 at cycle   4 NSaved=   4.
 NSaved= 4 IEnMin= 4 EnMin= -111.742846506732     IErMin= 4 ErrMin= 3.37D-06
 ErrMax= 3.37D-06  0.00D+00 EMaxC= 1.00D-01 BMatC= 2.69D-10 BMatP= 2.79D-09
 IDIUse=1 WtCom= 1.00D+00 WtEn= 0.00D+00
 Coeff-Com:  0.126D-03 0.163D+00 0.342D+00 0.495D+00
 Coeff:      0.126D-03 0.163D+00 0.342D+00 0.495D+00
 Gap=     0.194 Goal=   None    Shift=    0.000
 RMSDP=7.02D-07 MaxDP=4.28D-06 DE=-3.98D-09 OVMax= 4.57D-06

 Cycle   5  Pass 1  IDiag  1:
 E= -111.742846506975     Delta-E=       -0.000000000242 Rises=F Damp=F
 DIIS: error= 6.41D-07 at cycle   5 NSaved=   5.
 NSaved= 5 IEnMin= 5 EnMin= -111.742846506975     IErMin= 5 ErrMin= 6.41D-07
 ErrMax= 6.41D-07  0.00D+00 EMaxC= 1.00D-01 BMatC= 1.16D-11 BMatP= 2.69D-10
 IDIUse=1 WtCom= 1.00D+00 WtEn= 0.00D+00
 Coeff-Com: -0.612D-04 0.362D-01 0.816D-01 0.217D+00 0.665D+00
 Coeff:     -0.612D-04 0.362D-01 0.816D-01 0.217D+00 0.665D+00
 Gap=     0.194 Goal=   None    Shift=    0.000
 RMSDP=1.38D-07 MaxDP=6.86D-07 DE=-2.42D-10 OVMax= 1.08D-06

 Cycle   6  Pass 1  IDiag  1:
 E= -111.742846506987     Delta-E=       -0.000000000012 Rises=F Damp=F
 DIIS: error= 9.91D-09 at cycle   6 NSaved=   6.
 NSaved= 6 IEnMin= 6 EnMin= -111.742846506987     IErMin= 6 ErrMin= 9.91D-09
 ErrMax= 9.91D-09  0.00D+00 EMaxC= 1.00D-01 BMatC= 3.77D-15 BMatP= 1.16D-11
 IDIUse=1 WtCom= 1.00D+00 WtEn= 0.00D+00
 Coeff-Com: -0.101D-04 0.785D-03 0.124D-02 0.631D-02 0.336D-01 0.958D+00
 Coeff:     -0.101D-04 0.785D-03 0.124D-02 0.631D-02 0.336D-01 0.958D+00
 Gap=     0.194 Goal=   None    Shift=    0.000
 RMSDP=5.03D-09 MaxDP=1.93D-08 DE=-1.20D-11 OVMax= 3.37D-08

 SCF Done:  E(RB97D) =  -111.742846507     A.U. after    6 cycles
            NFock=  6  Conv=0.50D-08     -V/T= 2.0050
 KE= 1.111854714425D+02 PE=-3.415481456613D+02 EE= 7.857036062880D+01
 Leave Link  502 at Sat Feb 16 13:48:01 2019, MaxMem=   196608000 cpu:         2.6
 (Enter /cm/shared/c3ddb/gaussian/09.d01/g09/l508.exe)
 QCSCF skips out because SCF is already converged.
 Leave Link  508 at Sat Feb 16 13:48:01 2019, MaxMem=   196608000 cpu:         0.0
 (Enter /cm/shared/c3ddb/gaussian/09.d01/g09/l701.exe)
 Compute integral first derivatives.
 ... and contract with generalized density number  0.
 R6Disp: Adding Grimme-D2 dispersion energy 1st derivatives to the gradient.
 Leave Link  701 at Sat Feb 16 13:48:01 2019, MaxMem=   196608000 cpu:         3.0
 (Enter /cm/shared/c3ddb/gaussian/09.d01/g09/l702.exe)
 L702 exits ... SP integral derivatives will be done elsewhere.
 Leave Link  702 at Sat Feb 16 13:48:02 2019, MaxMem=   196608000 cpu:         0.3
 (Enter /cm/shared/c3ddb/gaussian/09.d01/g09/l703.exe)
 Compute integral first derivatives, UseDBF=F ICtDFT=           0.
 Integral derivatives from FoFJK, PRISM(SPDF).
 Calling FoFJK, ICntrl=      2527 FMM=F ISym2X=1 I1Cent= 0 IOpClX= 0 NMat=1 NMatS=1 NMatT=0.
 FoFJK:  IHMeth= 1 ICntrl=    2527 DoSepK=F KAlg= 0 I1Cent=   0 FoldK=F
 IRaf=         0 NMat=   1 IRICut=       1 DoRegI=T DoRafI=F ISym2E= 1.
 FoFCou: FMM=F IPFlag=           0 FMFlag=      100000 FMFlg1=         800
         NFxFlg=           0 DoJE=F BraDBF=F KetDBF=F FulRan=T
         wScrn=  0.000000 ICntrl=    2527 IOpCl=  0 I1Cent=           0 NGrid=           0
         NMat0=    1 NMatS0=      1 NMatT0=    0 NMatD0=    1 NMtDS0=    0 NMtDT0=    0
 Petite list used in FoFCou.
 Leave Link  703 at Sat Feb 16 13:48:02 2019, MaxMem=   196608000 cpu:         2.5
 (Enter /cm/shared/c3ddb/gaussian/09.d01/g09/l716.exe)
 Dipole        =-2.22044605D-16 1.11022302D-15 7.38513716D-04
 ***** Axes restored to original set *****
 -------------------------------------------------------------------
 Center     Atomic                   Forces (Hartrees/Bohr)
 Number     Number              X              Y              Z
 -------------------------------------------------------------------
      1        7           0.000001809   -0.000001549    0.000000234
      2        7          -0.000000855    0.000002191   -0.000000439
      3        1           0.000000285   -0.000001774   -0.000001965
      4        1          -0.000000244   -0.000000371   -0.000001233
      5        1          -0.000000061    0.000000166    0.000001299
      6        1          -0.000000934    0.000001337    0.000002104
 -------------------------------------------------------------------
 Cartesian Forces:  Max     0.000002191 RMS     0.000001271
 Leave Link  716 at Sat Feb 16 13:48:02 2019, MaxMem=   196608000 cpu:         0.3
 (Enter /cm/shared/c3ddb/gaussian/09.d01/g09/l103.exe)

 GradGradGradGradGradGradGradGradGradGradGradGradGradGradGradGradGradGrad
 Berny optimization.
 Using GEDIIS/GDIIS optimizer.
 FormGI is forming the generalized inverse of G from B-inverse, IUseBI=4.
 Internal  Forces:  Max     0.000000999 RMS     0.000000625
 Search for a local minimum.
 Step number   9 out of a maximum of   25
 All quantities printed in internal units (Hartrees-Bohrs-Radians)
 RMS Force = .62531D-06 SwitMx=.10000D-02 MixMth= 2
 Mixed Optimization -- En-DIIS/RFO-DIIS
 Swapping is turned off.
 Update second derivatives using D2CorX and points    1    3    4    5    6
                                                      7    8    9
 DE= -3.46D-08 DEPred=-3.34D-08 R= 1.04D+00
 Trust test= 1.04D+00 RLast= 6.13D-03 DXMaxT set to 7.33D-01
 The second derivative matrix:
                          R1        R2        R3        R4        R5
           R1           0.25231
           R2          -0.00116   0.40836
           R3          -0.01078  -0.00433   0.41052
           R4          -0.01078  -0.00043   0.00082   0.41052
           R5          -0.00116  -0.00135  -0.00043  -0.00433   0.40836
           A1           0.05553   0.01629  -0.00020   0.00235   0.00413
           A2           0.06285   0.00442   0.00982  -0.00233   0.00696
           A3          -0.01199   0.01822   0.00917  -0.00665   0.00240
           A4           0.06285   0.00696  -0.00233   0.00982   0.00442
           A5           0.05553   0.00413   0.00235  -0.00020   0.01629
           A6          -0.01199   0.00240  -0.00665   0.00917   0.01822
           D1           0.00014  -0.01239  -0.01300   0.01230   0.01291
           D2          -0.02694  -0.01079  -0.00938  -0.00938  -0.01079
           D3           0.02723   0.01130   0.00868   0.00868   0.01130
           D4           0.00014   0.01291   0.01230  -0.01300  -0.01239
                          A1        A2        A3        A4        A5
           A1           0.17806
           A2          -0.01981   0.18511
           A3          -0.05599  -0.04949   0.06303
           A4           0.04508   0.01195  -0.00091   0.18511
           A5           0.00489   0.04508  -0.00741  -0.01981   0.17806
           A6          -0.00741  -0.00091   0.00014  -0.04949  -0.05599
           D1          -0.00180  -0.00401  -0.00924   0.00192   0.00412
           D2          -0.00714  -0.01154  -0.01527  -0.01154  -0.00714
           D3           0.00946   0.00945   0.01523   0.00945   0.00946
           D4           0.00412   0.00192   0.00921  -0.00401  -0.00180
                          A6        D1        D2        D3        D4
           A6           0.06303
           D1           0.00921   0.01511
           D2          -0.01527  -0.00007   0.02752
           D3           0.01523   0.00039  -0.02766   0.02844
           D4          -0.00924  -0.01479  -0.00007   0.00039   0.01511
 ITU=  0  0  1  1  1  0  0  1  0
     Eigenvalues ---    0.00051   0.03749   0.06005   0.14459   0.15514
     Eigenvalues ---    0.16662   0.23683   0.36929   0.40986   0.41090
     Eigenvalues ---    0.41483   0.41767
 En-DIIS/RFO-DIIS IScMMF=        0 using points:     9    8    7    6    5
 RFO step:  Lambda=-2.85868985D-11.
 NNeg= 0 NP= 5 Switch=  2.50D-03 Rises=F DC=  4.29D-05 SmlDif=  1.00D-05
 RMS Error=  0.1112583979D-04 NUsed= 5 EDIIS=F
 DidBck=F Rises=F RFO-DIIS coefs:    1.14736   -0.12337   -0.01160   -0.01187   -0.00051
 Iteration  1 RMS(Cart)=  0.00041447 RMS(Int)=  0.00000011
 Iteration  2 RMS(Cart)=  0.00000010 RMS(Int)=  0.00000003
 ITry= 1 IFail=0 DXMaxC= 6.98D-04 DCOld= 1.00D+10 DXMaxT= 7.33D-01 DXLimC= 3.00D+00 Rises=F
 ClnCor:  largest displacement from symmetrization is 1.28D-11 for atom     2.
 Variable       Old X    -DE/DX   Delta X   Delta X   Delta X     New X
                                 (Linear)    (Quad)   (Total)
    R1        2.89308   0.00000  -0.00002   0.00002   0.00000   2.89308
    R2        1.94712   0.00000   0.00000   0.00000   0.00000   1.94712
    R3        1.94712   0.00000   0.00001  -0.00001   0.00000   1.94712
    R4        1.94712   0.00000   0.00001  -0.00001   0.00000   1.94712
    R5        1.94712   0.00000   0.00000   0.00000   0.00000   1.94712
    A1        1.81319   0.00000  -0.00002  -0.00001  -0.00004   1.81316
    A2        1.81313   0.00000   0.00001   0.00001   0.00003   1.81315
    A3        1.84163   0.00000  -0.00002   0.00001   0.00000   1.84162
    A4        1.81313   0.00000   0.00001   0.00001   0.00003   1.81315
    A5        1.81319   0.00000  -0.00002  -0.00001  -0.00004   1.81316
    A6        1.84163   0.00000  -0.00002   0.00001   0.00000   1.84162
    D1        3.14064   0.00000   0.00081   0.00014   0.00095   3.14159
    D2        1.21760   0.00000   0.00083   0.00013   0.00096   1.21856
    D3       -1.21951   0.00000   0.00079   0.00016   0.00094  -1.21857
    D4        3.14064   0.00000   0.00081   0.00014   0.00095   3.14159
         Item               Value     Threshold  Converged?
 Maximum Force            0.000001     0.000450     YES
 RMS     Force            0.000001     0.000300     YES
 Maximum Displacement     0.000698     0.001800     YES
 RMS     Displacement     0.000414     0.001200     YES
 Predicted change in Energy=-9.273179D-10
 Optimization completed.
    -- Stationary point found.
                           ----------------------------
                           !   Optimized Parameters   !
                           ! (Angstroms and Degrees)  !
 --------------------------                            --------------------------
 ! Name  Definition              Value          Derivative Info.                !
 --------------------------------------------------------------------------------
 ! R1    R(1,2)                  1.531          -DE/DX =    0.0                 !
 ! R2    R(1,3)                  1.0304         -DE/DX =    0.0                 !
 ! R3    R(1,4)                  1.0304         -DE/DX =    0.0                 !
 ! R4    R(2,5)                  1.0304         -DE/DX =    0.0                 !
 ! R5    R(2,6)                  1.0304         -DE/DX =    0.0                 !
 ! A1    A(2,1,3)              103.8883         -DE/DX =    0.0                 !
 ! A2    A(2,1,4)              103.8846         -DE/DX =    0.0                 !
 ! A3    A(3,1,4)              105.5174         -DE/DX =    0.0                 !
 ! A4    A(1,2,5)              103.8846         -DE/DX =    0.0                 !
 ! A5    A(1,2,6)              103.8883         -DE/DX =    0.0                 !
 ! A6    A(5,2,6)              105.5174         -DE/DX =    0.0                 !
 ! D1    D(3,1,2,5)            179.9453         -DE/DX =    0.0                 !
 ! D2    D(3,1,2,6)             69.7633         -DE/DX =    0.0                 !
 ! D3    D(4,1,2,5)            -69.8728         -DE/DX =    0.0                 !
 ! D4    D(4,1,2,6)            179.9453         -DE/DX =    0.0                 !
 --------------------------------------------------------------------------------
 Lowest energy point so far.  Saving SCF results.
 GradGradGradGradGradGradGradGradGradGradGradGradGradGradGradGradGradGrad

 Largest change from initial coordinates is atom    5       0.097 Angstoms.
 Leave Link  103 at Sat Feb 16 13:48:03 2019, MaxMem=   196608000 cpu:         6.0
 (Enter /cm/shared/c3ddb/gaussian/09.d01/g09/l202.exe)
                          Input orientation:                          
 ---------------------------------------------------------------------
 Center     Atomic      Atomic             Coordinates (Angstroms)
 Number     Number       Type             X           Y           Z
 ---------------------------------------------------------------------
      1          7           0        0.917616    0.013762    0.004806
      2          7           0        0.458273    0.234404   -1.438846
      3          1           0        0.604017   -0.943728    0.220524
      4          1           0        1.943886   -0.042145   -0.068071
      5          1           0        0.771064    1.192243   -1.654186
      6          1           0       -0.568060    0.289374   -1.366160
 ---------------------------------------------------------------------
                    Distance matrix (angstroms):
                    1          2          3          4          5
     1  N    0.000000
     2  N    1.530951   0.000000
     3  H    1.030371   2.040281   0.000000
     4  H    1.030372   2.040233   1.640545   0.000000
     5  H    2.040233   1.030372   2.846896   2.327012   0.000000
     6  H    2.040281   1.030371   2.326343   2.846896   1.640545
                    6
     6  H    0.000000
 Stoichiometry    H4N2
 Framework group  C2[X(H4N2)]
 Deg. of freedom     7
 Full point group                 C2      NOp   2
 RotChk:  IX=0 Diff= 1.33D-15
 Largest Abelian subgroup         C2      NOp   2
 Largest concise Abelian subgroup C2      NOp   2
                         Standard orientation:                         
 ---------------------------------------------------------------------
 Center     Atomic      Atomic             Coordinates (Angstroms)
 Number     Number       Type             X           Y           Z
 ---------------------------------------------------------------------
      1          7           0        0.000000    0.765476   -0.000059
      2          7           0        0.000000   -0.765476   -0.000059
      3          1           0        0.572026    1.012795    0.820480
      4          1           0        0.572819    1.012732   -0.820065
      5          1           0       -0.572819   -1.012732   -0.820065
      6          1           0       -0.572026   -1.012795    0.820480
 ---------------------------------------------------------------------
 Rotational constants (GHZ):    134.6478098     23.1124669     21.4711057
 Leave Link  202 at Sat Feb 16 13:48:03 2019, MaxMem=   196608000 cpu:         0.1
 (Enter /cm/shared/c3ddb/gaussian/09.d01/g09/l601.exe)
 Copying SCF densities to generalized density rwf, IOpCl= 0 IROHF=0.

 **********************************************************************

            Population analysis using the SCF density.

 **********************************************************************

 Orbital symmetries:
       Occupied  (B) (A) (A) (B) (A) (A) (B) (B) (A)
       Virtual   (A) (B) (A) (B) (B) (B) (A) (A) (B) (A) (B) (A)
                 (B) (B) (A) (A) (B)
 The electronic state is 1-A.
 Alpha  occ. eigenvalues --  -14.01268 -14.01261  -0.85465  -0.69389  -0.46268
 Alpha  occ. eigenvalues --   -0.38693  -0.37053  -0.27201  -0.14276
 Alpha virt. eigenvalues --    0.05155   0.05799   0.12109   0.13338   0.14225
 Alpha virt. eigenvalues --    0.63892   0.65206   0.70357   0.72133   0.72292
 Alpha virt. eigenvalues --    0.79079   0.87750   0.88446   0.90319   0.90862
 Alpha virt. eigenvalues --    1.23227   1.49589
          Condensed to atoms (all electrons):
               1          2          3          4          5          6
     1  N    6.906335   0.159987   0.299866   0.299873  -0.043182  -0.043143
     2  N    0.159987   6.906335  -0.043143  -0.043182   0.299873   0.299866
     3  H    0.299866  -0.043143   0.490581  -0.038809   0.005952  -0.004295
     4  H    0.299873  -0.043182  -0.038809   0.490548  -0.004269   0.005952
     5  H   -0.043182   0.299873   0.005952  -0.004269   0.490548  -0.038809
     6  H   -0.043143   0.299866  -0.004295   0.005952  -0.038809   0.490581
 Mulliken charges:
               1
     1  N   -0.579736
     2  N   -0.579736
     3  H    0.289848
     4  H    0.289888
     5  H    0.289888
     6  H    0.289848
 Sum of Mulliken charges =   0.00000
 Mulliken charges with hydrogens summed into heavy atoms:
               1
     1  N    0.000000
     2  N    0.000000
 Electronic spatial extent (au):  <R**2>=             86.6523
 Charge=              0.0000 electrons
 Dipole moment (field-independent basis, Debye):
    X=              0.0000    Y=              0.0000    Z=              0.0019  Tot=              0.0019
 Quadrupole moment (field-independent basis, Debye-Ang):
   XX=            -13.9011   YY=            -13.9547   ZZ=            -10.3630
   XY=              4.8012   XZ=              0.0000   YZ=              0.0000
 Traceless Quadrupole moment (field-independent basis, Debye-Ang):
   XX=             -1.1615   YY=             -1.2151   ZZ=              2.3766
   XY=              4.8012   XZ=              0.0000   YZ=              0.0000
 Octapole moment (field-independent basis, Debye-Ang**2):
  XXX=              0.0000  YYY=              0.0000  ZZZ=              0.0029  XYY=              0.0000
  XXY=              0.0000  XXZ=             -0.0012  XZZ=              0.0000  YZZ=              0.0000
  YYZ=              0.0030  XYZ=             -0.0019
 Hexadecapole moment (field-independent basis, Debye-Ang**3):
 XXXX=            -17.6818 YYYY=            -66.6370 ZZZZ=            -17.4564 XXXY=             -1.4939
 XXXZ=              0.0000 YYYX=              2.6978 YYYZ=              0.0000 ZZZX=              0.0000
 ZZZY=              0.0000 XXYY=            -14.1347 XXZZ=             -5.1187 YYZZ=            -11.5328
 XXYZ=              0.0000 YYXZ=              0.0000 ZZXY=              1.1089
 N-N= 4.004946708296D+01 E-N=-3.415481454901D+02  KE= 1.111854714425D+02
 Symmetry A    KE= 5.724046606582D+01
 Symmetry B    KE= 5.394500537670D+01
 No NMR shielding tensors so no spin-rotation constants.
 Leave Link  601 at Sat Feb 16 13:48:03 2019, MaxMem=   196608000 cpu:         2.8
 (Enter /cm/shared/c3ddb/gaussian/09.d01/g09/l9999.exe)
 1\1\GINC-NODE024\FOpt\RB97D\6-31G\H4N2\DUMINDA\16-Feb-2019\0\\#P opt=c
 alcfc b97d/6-31g scf=xqc\\name\\0,1\N,0.9176164726,0.0137617536,0.0048
 062939\N,0.458272794,0.2344035446,-1.438846391\H,0.6040172976,-0.94372
 76829,0.2205240772\H,1.9438862254,-0.0421447014,-0.0680708318\H,0.7710
 64494,1.1922429268,-1.6541863147\H,-0.5680602764,0.2893735263,-1.36615
 96971\\Version=AS64L-G09RevD.01\State=1-A\HF=-111.7428465\RMSD=5.032e-
 09\RMSF=1.271e-06\Dipole=-0.000603,-0.0004061,0.0001298\Quadrupole=1.9
 430957,0.7776725,-2.7207682,0.0480375,0.9688709,-2.872502\PG=C02 [X(H4
 N2)]\\@


 SOME PHYSICISTS WOULD PREFER TO COME BACK TO THE IDEA OF AN OBJECTIVE
 REAL WORLD WHOSE SMALLEST PARTS EXIST OBJECTIVELY IN THE SAME SENSE AS
 STONES OR TREES EXIST INDEPENDENTLY OF WHETHER WE OBSERVE THEM.
 THIS, HOWEVER, IS IMPOSSIBLE.  -- WERNER HEISENBERG
 Job cpu time:       0 days  0 hours  5 minutes 21.5 seconds.
 File lengths (MBytes):  RWF=      5 Int=      0 D2E=      0 Chk=      1 Scr=      1
 Normal termination of Gaussian 09 at Sat Feb 16 13:48:04 2019.
