 Entering Gaussian System, Link 0=g09
 Initial command:
 /cm/shared/c3ddb/gaussian/09.d01/g09/l1.exe "/scratch/users/duminda/g09/a1688-7322578/Gau-39740.inp" -scrdir="/scratch/users/duminda/g09/a1688-7322578/"
 Entering Link 1 = /cm/shared/c3ddb/gaussian/09.d01/g09/l1.exe PID=     39741.
  
 Copyright (c) 1988,1990,1992,1993,1995,1998,2003,2009,2013,
            Gaussian, Inc.  All Rights Reserved.
  
 This is part of the Gaussian(R) 09 program.  It is based on
 the Gaussian(R) 03 system (copyright 2003, Gaussian, Inc.),
 the Gaussian(R) 98 system (copyright 1998, Gaussian, Inc.),
 the Gaussian(R) 94 system (copyright 1995, Gaussian, Inc.),
 the Gaussian 92(TM) system (copyright 1992, Gaussian, Inc.),
 the Gaussian 90(TM) system (copyright 1990, Gaussian, Inc.),
 the Gaussian 88(TM) system (copyright 1988, Gaussian, Inc.),
 the Gaussian 86(TM) system (copyright 1986, Carnegie Mellon
 University), and the Gaussian 82(TM) system (copyright 1983,
 Carnegie Mellon University). Gaussian is a federally registered
 trademark of Gaussian, Inc.
  
 This software contains proprietary and confidential information,
 including trade secrets, belonging to Gaussian, Inc.
  
 This software is provided under written license and may be
 used, copied, transmitted, or stored only in accord with that
 written license.
  
 The following legend is applicable only to US Government
 contracts under FAR:
  
                    RESTRICTED RIGHTS LEGEND
  
 Use, reproduction and disclosure by the US Government is
 subject to restrictions as set forth in subparagraphs (a)
 and (c) of the Commercial Computer Software - Restricted
 Rights clause in FAR 52.227-19.
  
 Gaussian, Inc.
 340 Quinnipiac St., Bldg. 40, Wallingford CT 06492
  
  
 ---------------------------------------------------------------
 Warning -- This program may not be used in any manner that
 competes with the business of Gaussian, Inc. or will provide
 assistance to any competitor of Gaussian, Inc.  The licensee
 of this program is prohibited from giving any competitor of
 Gaussian, Inc. access to this program.  By using this program,
 the user acknowledges that Gaussian, Inc. is engaged in the
 business of creating and licensing software in the field of
 computational chemistry and represents and warrants to the
 licensee that it is not a competitor of Gaussian, Inc. and that
 it will not use this program in any manner prohibited above.
 ---------------------------------------------------------------
  

 Cite this work as:
 Gaussian 09, Revision D.01,
 M. J. Frisch, G. W. Trucks, H. B. Schlegel, G. E. Scuseria, 
 M. A. Robb, J. R. Cheeseman, G. Scalmani, V. Barone, B. Mennucci, 
 G. A. Petersson, H. Nakatsuji, M. Caricato, X. Li, H. P. Hratchian, 
 A. F. Izmaylov, J. Bloino, G. Zheng, J. L. Sonnenberg, M. Hada, 
 M. Ehara, K. Toyota, R. Fukuda, J. Hasegawa, M. Ishida, T. Nakajima, 
 Y. Honda, O. Kitao, H. Nakai, T. Vreven, J. A. Montgomery, Jr., 
 J. E. Peralta, F. Ogliaro, M. Bearpark, J. J. Heyd, E. Brothers, 
 K. N. Kudin, V. N. Staroverov, T. Keith, R. Kobayashi, J. Normand, 
 K. Raghavachari, A. Rendell, J. C. Burant, S. S. Iyengar, J. Tomasi, 
 M. Cossi, N. Rega, J. M. Millam, M. Klene, J. E. Knox, J. B. Cross, 
 V. Bakken, C. Adamo, J. Jaramillo, R. Gomperts, R. E. Stratmann, 
 O. Yazyev, A. J. Austin, R. Cammi, C. Pomelli, J. W. Ochterski, 
 R. L. Martin, K. Morokuma, V. G. Zakrzewski, G. A. Voth, 
 P. Salvador, J. J. Dannenberg, S. Dapprich, A. D. Daniels, 
 O. Farkas, J. B. Foresman, J. V. Ortiz, J. Cioslowski, 
 and D. J. Fox, Gaussian, Inc., Wallingford CT, 2013.
 
 ******************************************
 Gaussian 09:  AS64L-G09RevD.01 24-Apr-2013
                16-Feb-2019 
 ******************************************
 %chk=check.chk
 %mem=1500mb
 %nproc=8
 Will use up to    8 processors via shared memory.
 ----------------------------------------
 #P ub3lyp/cbsb7 freq iop(7/33=1) scf=xqc
 ----------------------------------------
 1/10=4,30=1,38=1/1,3;
 2/12=2,17=6,18=5,40=1/2;
 3/5=4,6=6,7=700,11=2,16=1,25=1,30=1,71=2,74=-5,116=2,140=1/1,2,3;
 4//1;
 5/5=2,8=3,13=1,38=5,98=1/2,8;
 8/6=4,10=90,11=11/1;
 11/6=1,8=1,9=11,15=111,16=1/1,2,10;
 10/6=1/2;
 6/7=2,8=2,9=2,10=2,18=1,28=1/1;
 7/8=1,10=1,25=1,33=1/1,2,3,16;
 1/10=4,30=1/3;
 99//99;
 Leave Link    1 at Sat Feb 16 13:49:22 2019, MaxMem=   196608000 cpu:         0.5
 (Enter /cm/shared/c3ddb/gaussian/09.d01/g09/l101.exe)
 ----
 name
 ----
 Symbolic Z-matrix:
 Charge =  0 Multiplicity = 2
 O                     0.        0.       -0.12209 
 H                     0.        0.        0.85306 
 
 NAtoms=      2 NQM=        2 NQMF=       0 NMMI=      0 NMMIF=      0
                NMic=       0 NMicF=      0.
                    Isotopes and Nuclear Properties:
 (Nuclear quadrupole moments (NQMom) in fm**2, nuclear magnetic moments (NMagM)
  in nuclear magnetons)

  Atom         1           2
 IAtWgt=          16           1
 AtmWgt=  15.9949146   1.0078250
 NucSpn=           0           1
 AtZEff=   0.0000000   0.0000000
 NQMom=    0.0000000   0.0000000
 NMagM=    0.0000000   2.7928460
 AtZNuc=   8.0000000   1.0000000
 Leave Link  101 at Sat Feb 16 13:49:23 2019, MaxMem=   196608000 cpu:         0.6
 (Enter /cm/shared/c3ddb/gaussian/09.d01/g09/l103.exe)

 GradGradGradGradGradGradGradGradGradGradGradGradGradGradGradGradGradGrad
 Berny optimization.
 Initialization pass.
 Trust Radius=3.00D-01 FncErr=1.00D-07 GrdErr=1.00D-07
 Number of steps in this run=      2 maximum allowed number of steps=      2.
 GradGradGradGradGradGradGradGradGradGradGradGradGradGradGradGradGradGrad

 Leave Link  103 at Sat Feb 16 13:49:23 2019, MaxMem=   196608000 cpu:         0.1
 (Enter /cm/shared/c3ddb/gaussian/09.d01/g09/l202.exe)
                          Input orientation:                          
 ---------------------------------------------------------------------
 Center     Atomic      Atomic             Coordinates (Angstroms)
 Number     Number       Type             X           Y           Z
 ---------------------------------------------------------------------
      1          8           0        0.000000    0.000000   -0.122093
      2          1           0        0.000000    0.000000    0.853055
 ---------------------------------------------------------------------
 Stoichiometry    HO(2)
 Framework group  C*V[C*(HO)]
 Deg. of freedom     1
 Full point group                 C*V     NOp   4
 Largest Abelian subgroup         C2V     NOp   4
 Largest concise Abelian subgroup C1      NOp   1
                         Standard orientation:                         
 ---------------------------------------------------------------------
 Center     Atomic      Atomic             Coordinates (Angstroms)
 Number     Number       Type             X           Y           Z
 ---------------------------------------------------------------------
      1          8           0        0.000000    0.000000    0.108350
      2          1           0        0.000000    0.000000   -0.866798
 ---------------------------------------------------------------------
 Rotational constants (GHZ):      0.0000000    560.5675618    560.5675618
 Leave Link  202 at Sat Feb 16 13:49:23 2019, MaxMem=   196608000 cpu:         0.1
 (Enter /cm/shared/c3ddb/gaussian/09.d01/g09/l301.exe)
 Standard basis: 6-311G(2d,d,p) (5D, 7F)
 Ernie: Thresh=  0.10000D-02 Tol=  0.10000D-05 Strict=F.
 There are    14 symmetry adapted cartesian basis functions of A1  symmetry.
 There are     1 symmetry adapted cartesian basis functions of A2  symmetry.
 There are     5 symmetry adapted cartesian basis functions of B1  symmetry.
 There are     5 symmetry adapted cartesian basis functions of B2  symmetry.
 There are    13 symmetry adapted basis functions of A1  symmetry.
 There are     1 symmetry adapted basis functions of A2  symmetry.
 There are     5 symmetry adapted basis functions of B1  symmetry.
 There are     5 symmetry adapted basis functions of B2  symmetry.
    24 basis functions,    40 primitive gaussians,    25 cartesian basis functions
     5 alpha electrons        4 beta electrons
       nuclear repulsion energy         4.3413078514 Hartrees.
 IExCor=  402 DFT=T Ex+Corr=B3LYP ExCW=0 ScaHFX=  0.200000
 ScaDFX=  0.800000  0.720000  1.000000  0.810000 ScalE2=  1.000000  1.000000
 IRadAn=      0 IRanWt=     -1 IRanGd=            0 ICorTp=0 IEmpDi=  4
 NAtoms=    2 NActive=    2 NUniq=    2 SFac= 1.00D+00 NAtFMM=   60 NAOKFM=F Big=F
 Integral buffers will be    131072 words long.
 Raffenetti 2 integral format.
 Two-electron integral symmetry is turned on.
 Leave Link  301 at Sat Feb 16 13:49:23 2019, MaxMem=   196608000 cpu:         0.4
 (Enter /cm/shared/c3ddb/gaussian/09.d01/g09/l302.exe)
 NPDir=0 NMtPBC=     1 NCelOv=     1 NCel=       1 NClECP=     1 NCelD=      1
         NCelK=      1 NCelE2=     1 NClLst=     1 CellRange=     0.0.
 One-electron integrals computed using PRISM.
 NBasis=    24 RedAO= T EigKep=  6.72D-02  NBF=    13     1     5     5
 NBsUse=    24 1.00D-06 EigRej= -1.00D+00 NBFU=    13     1     5     5
 Precomputing XC quadrature grid using
 IXCGrd= 4 IRadAn=           0 IRanWt=          -1 IRanGd=           0 AccXCQ= 0.00D+00.
 Generated NRdTot=       0 NPtTot=           0 NUsed=           0 NTot=          32
 NSgBfM=    25    25    25    25    25 MxSgAt=     2 MxSgA2=     2.
 Leave Link  302 at Sat Feb 16 13:49:23 2019, MaxMem=   196608000 cpu:         3.3
 (Enter /cm/shared/c3ddb/gaussian/09.d01/g09/l303.exe)
 DipDrv:  MaxL=1.
 Leave Link  303 at Sat Feb 16 13:49:24 2019, MaxMem=   196608000 cpu:         0.9
 (Enter /cm/shared/c3ddb/gaussian/09.d01/g09/l401.exe)
 ExpMin= 1.03D-01 ExpMax= 8.59D+03 ExpMxC= 1.30D+03 IAcc=1 IRadAn=         1 AccDes= 0.00D+00
 Harris functional with IExCor=  402 and IRadAn=       1 diagonalized for initial guess.
 HarFok:  IExCor=  402 AccDes= 0.00D+00 IRadAn=         1 IDoV= 1 UseB2=F ITyADJ=14
 ICtDFT=  3500011 ScaDFX=  1.000000  1.000000  1.000000  1.000000
 FoFCou: FMM=F IPFlag=           0 FMFlag=      100000 FMFlg1=           0
         NFxFlg=           0 DoJE=T BraDBF=F KetDBF=T FulRan=T
         wScrn=  0.000000 ICntrl=     500 IOpCl=  0 I1Cent=   200000004 NGrid=           0
         NMat0=    1 NMatS0=      1 NMatT0=    0 NMatD0=    1 NMtDS0=    0 NMtDT0=    0
 Petite list used in FoFCou.
 Harris En= -75.7274996736088    
 JPrj=0 DoOrth=F DoCkMO=F.
 Initial guess orbital symmetries:
 Alpha Orbitals:
       Occupied  (SG) (SG) (SG) (PI) (PI)
       Virtual   (SG) (SG) (PI) (PI) (SG) (SG) (PI) (PI) (SG) (SG)
                 (DLTA) (DLTA) (PI) (PI) (SG) (PI) (PI) (SG) (SG)
 Beta  Orbitals:
       Occupied  (SG) (SG) (SG) (PI)
       Virtual   (PI) (SG) (SG) (PI) (PI) (SG) (SG) (PI) (PI) (SG)
                 (SG) (DLTA) (DLTA) (PI) (PI) (SG) (PI) (PI) (SG)
                 (SG)
 Initial guess <Sx>= 0.0000 <Sy>= 0.0000 <Sz>= 0.5000 <S**2>= 0.7500 S= 0.5000
 Leave Link  401 at Sat Feb 16 13:49:24 2019, MaxMem=   196608000 cpu:         5.1
 (Enter /cm/shared/c3ddb/gaussian/09.d01/g09/l502.exe)
 UHF open shell SCF:
 Using DIIS extrapolation, IDIIS=  1040.
 Integral symmetry usage will be decided dynamically.
 Keep R1 and R2 ints in memory in symmetry-blocked form, NReq=914395.
 IVT=        8243 IEndB=        8243 NGot=   196608000 MDV=   196571890
 LenX=   196571890 LenY=   196570824
 Requested convergence on RMS density matrix=1.00D-08 within  64 cycles.
 Requested convergence on MAX density matrix=1.00D-06.
 Requested convergence on             energy=1.00D-06.
 No special actions if energy rises.
 FoFCou: FMM=F IPFlag=           0 FMFlag=           0 FMFlg1=           0
         NFxFlg=           0 DoJE=F BraDBF=F KetDBF=F FulRan=T
         wScrn=  0.000000 ICntrl=     600 IOpCl=  0 I1Cent=           0 NGrid=           0
         NMat0=    1 NMatS0=    300 NMatT0=    0 NMatD0=    1 NMtDS0=    0 NMtDT0=    0
 Petite list used in FoFCou.
 Integral accuracy reduced to 1.0D-05 until final iterations.

 Cycle   1  Pass 0  IDiag  1:
 E= -75.7362041933768    
 DIIS: error= 2.95D-02 at cycle   1 NSaved=   1.
 NSaved= 1 IEnMin= 1 EnMin= -75.7362041933768     IErMin= 1 ErrMin= 2.95D-02
 ErrMax= 2.95D-02  0.00D+00 EMaxC= 1.00D-01 BMatC= 1.08D-01 BMatP= 1.08D-01
 IDIUse=3 WtCom= 7.05D-01 WtEn= 2.95D-01
 Coeff-Com:  0.100D+01
 Coeff-En:   0.100D+01
 Coeff:      0.100D+01
 Gap=     0.303 Goal=   None    Shift=    0.000
 Gap=     0.152 Goal=   None    Shift=    0.000
 GapD=    0.152 DampG=1.000 DampE=0.500 DampFc=0.5000 IDamp=-1.
 Damping current iteration by 5.00D-01
 RMSDP=8.30D-03 MaxDP=9.22D-02              OVMax= 1.11D-01

 Cycle   2  Pass 0  IDiag  1:
 E= -75.7443279912713     Delta-E=       -0.008123797895 Rises=F Damp=T
 DIIS: error= 9.53D-03 at cycle   2 NSaved=   2.
 NSaved= 2 IEnMin= 2 EnMin= -75.7443279912713     IErMin= 2 ErrMin= 9.53D-03
 ErrMax= 9.53D-03  0.00D+00 EMaxC= 1.00D-01 BMatC= 5.63D-03 BMatP= 1.08D-01
 IDIUse=3 WtCom= 9.05D-01 WtEn= 9.53D-02
 Coeff-Com:  0.419D-01 0.958D+00
 Coeff-En:   0.876D-01 0.912D+00
 Coeff:      0.463D-01 0.954D+00
 Gap=     0.369 Goal=   None    Shift=    0.000
 Gap=     0.146 Goal=   None    Shift=    0.000
 RMSDP=1.19D-03 MaxDP=1.79D-02 DE=-8.12D-03 OVMax= 5.42D-02

 Cycle   3  Pass 0  IDiag  1:
 E= -75.7544258517791     Delta-E=       -0.010097860508 Rises=F Damp=F
 DIIS: error= 3.26D-03 at cycle   3 NSaved=   3.
 NSaved= 3 IEnMin= 3 EnMin= -75.7544258517791     IErMin= 3 ErrMin= 3.26D-03
 ErrMax= 3.26D-03  0.00D+00 EMaxC= 1.00D-01 BMatC= 4.73D-04 BMatP= 5.63D-03
 IDIUse=3 WtCom= 9.67D-01 WtEn= 3.26D-02
 Coeff-Com: -0.532D-01 0.697D-01 0.984D+00
 Coeff-En:   0.000D+00 0.000D+00 0.100D+01
 Coeff:     -0.515D-01 0.674D-01 0.984D+00
 Gap=     0.369 Goal=   None    Shift=    0.000
 Gap=     0.148 Goal=   None    Shift=    0.000
 RMSDP=2.88D-04 MaxDP=4.16D-03 DE=-1.01D-02 OVMax= 4.41D-03

 Cycle   4  Pass 0  IDiag  1:
 E= -75.7545219081396     Delta-E=       -0.000096056360 Rises=F Damp=F
 DIIS: error= 5.73D-04 at cycle   4 NSaved=   4.
 NSaved= 4 IEnMin= 4 EnMin= -75.7545219081396     IErMin= 4 ErrMin= 5.73D-04
 ErrMax= 5.73D-04  0.00D+00 EMaxC= 1.00D-01 BMatC= 1.65D-05 BMatP= 4.73D-04
 IDIUse=3 WtCom= 9.94D-01 WtEn= 5.73D-03
 Coeff-Com: -0.827D-02-0.135D-01 0.152D+00 0.869D+00
 Coeff-En:   0.000D+00 0.000D+00 0.000D+00 0.100D+01
 Coeff:     -0.822D-02-0.134D-01 0.152D+00 0.870D+00
 Gap=     0.369 Goal=   None    Shift=    0.000
 Gap=     0.148 Goal=   None    Shift=    0.000
 RMSDP=7.42D-05 MaxDP=7.57D-04 DE=-9.61D-05 OVMax= 1.16D-03

 Cycle   5  Pass 0  IDiag  1:
 E= -75.7545264928275     Delta-E=       -0.000004584688 Rises=F Damp=F
 DIIS: error= 1.23D-04 at cycle   5 NSaved=   5.
 NSaved= 5 IEnMin= 5 EnMin= -75.7545264928275     IErMin= 5 ErrMin= 1.23D-04
 ErrMax= 1.23D-04  0.00D+00 EMaxC= 1.00D-01 BMatC= 1.03D-06 BMatP= 1.65D-05
 IDIUse=3 WtCom= 9.99D-01 WtEn= 1.23D-03
 Coeff-Com:  0.545D-02-0.324D-02-0.899D-01-0.131D+00 0.122D+01
 Coeff-En:   0.000D+00 0.000D+00 0.000D+00 0.000D+00 0.100D+01
 Coeff:      0.544D-02-0.324D-02-0.898D-01-0.131D+00 0.122D+01
 Gap=     0.369 Goal=   None    Shift=    0.000
 Gap=     0.148 Goal=   None    Shift=    0.000
 RMSDP=3.31D-05 MaxDP=3.04D-04 DE=-4.58D-06 OVMax= 5.88D-04

 Cycle   6  Pass 0  IDiag  1:
 E= -75.7545271256298     Delta-E=       -0.000000632802 Rises=F Damp=F
 DIIS: error= 2.39D-05 at cycle   6 NSaved=   6.
 NSaved= 6 IEnMin= 6 EnMin= -75.7545271256298     IErMin= 6 ErrMin= 2.39D-05
 ErrMax= 2.39D-05  0.00D+00 EMaxC= 1.00D-01 BMatC= 3.10D-08 BMatP= 1.03D-06
 IDIUse=1 WtCom= 1.00D+00 WtEn= 0.00D+00
 Coeff-Com: -0.115D-02 0.159D-02 0.168D-01 0.360D-02-0.323D+00 0.130D+01
 Coeff:     -0.115D-02 0.159D-02 0.168D-01 0.360D-02-0.323D+00 0.130D+01
 Gap=     0.369 Goal=   None    Shift=    0.000
 Gap=     0.148 Goal=   None    Shift=    0.000
 RMSDP=8.03D-06 MaxDP=7.57D-05 DE=-6.33D-07 OVMax= 1.50D-04

 Initial convergence to 1.0D-05 achieved.  Increase integral accuracy.
 Cycle   7  Pass 1  IDiag  1:
 E= -75.7545273569153     Delta-E=       -0.000000231285 Rises=F Damp=F
 DIIS: error= 6.50D-06 at cycle   1 NSaved=   1.
 NSaved= 1 IEnMin= 1 EnMin= -75.7545273569153     IErMin= 1 ErrMin= 6.50D-06
 ErrMax= 6.50D-06  0.00D+00 EMaxC= 1.00D-01 BMatC= 2.00D-09 BMatP= 2.00D-09
 IDIUse=1 WtCom= 1.00D+00 WtEn= 0.00D+00
 Coeff-Com:  0.100D+01
 Coeff:      0.100D+01
 Gap=     0.369 Goal=   None    Shift=    0.000
 Gap=     0.148 Goal=   None    Shift=    0.000
 RMSDP=8.03D-06 MaxDP=7.57D-05 DE=-2.31D-07 OVMax= 1.40D-05

 Cycle   8  Pass 1  IDiag  1:
 E= -75.7545273575358     Delta-E=       -0.000000000621 Rises=F Damp=F
 DIIS: error= 1.55D-06 at cycle   2 NSaved=   2.
 NSaved= 2 IEnMin= 2 EnMin= -75.7545273575358     IErMin= 2 ErrMin= 1.55D-06
 ErrMax= 1.55D-06  0.00D+00 EMaxC= 1.00D-01 BMatC= 1.22D-10 BMatP= 2.00D-09
 IDIUse=1 WtCom= 1.00D+00 WtEn= 0.00D+00
 Coeff-Com: -0.813D-01 0.108D+01
 Coeff:     -0.813D-01 0.108D+01
 Gap=     0.369 Goal=   None    Shift=    0.000
 Gap=     0.148 Goal=   None    Shift=    0.000
 RMSDP=3.21D-07 MaxDP=3.42D-06 DE=-6.21D-10 OVMax= 7.11D-06

 Cycle   9  Pass 1  IDiag  1:
 E= -75.7545273575933     Delta-E=       -0.000000000057 Rises=F Damp=F
 DIIS: error= 9.30D-07 at cycle   3 NSaved=   3.
 NSaved= 3 IEnMin= 3 EnMin= -75.7545273575933     IErMin= 3 ErrMin= 9.30D-07
 ErrMax= 9.30D-07  0.00D+00 EMaxC= 1.00D-01 BMatC= 6.01D-11 BMatP= 1.22D-10
 IDIUse=1 WtCom= 1.00D+00 WtEn= 0.00D+00
 Coeff-Com: -0.848D-01 0.430D+00 0.655D+00
 Coeff:     -0.848D-01 0.430D+00 0.655D+00
 Gap=     0.369 Goal=   None    Shift=    0.000
 Gap=     0.148 Goal=   None    Shift=    0.000
 RMSDP=1.29D-07 MaxDP=1.45D-06 DE=-5.74D-11 OVMax= 2.64D-06

 Cycle  10  Pass 1  IDiag  1:
 E= -75.7545273576065     Delta-E=       -0.000000000013 Rises=F Damp=F
 DIIS: error= 3.83D-07 at cycle   4 NSaved=   4.
 NSaved= 4 IEnMin= 4 EnMin= -75.7545273576065     IErMin= 4 ErrMin= 3.83D-07
 ErrMax= 3.83D-07  0.00D+00 EMaxC= 1.00D-01 BMatC= 8.22D-12 BMatP= 6.01D-11
 IDIUse=1 WtCom= 1.00D+00 WtEn= 0.00D+00
 Coeff-Com:  0.860D-02-0.216D+00 0.172D+00 0.104D+01
 Coeff:      0.860D-02-0.216D+00 0.172D+00 0.104D+01
 Gap=     0.369 Goal=   None    Shift=    0.000
 Gap=     0.148 Goal=   None    Shift=    0.000
 RMSDP=7.42D-08 MaxDP=7.65D-07 DE=-1.33D-11 OVMax= 1.60D-06

 Cycle  11  Pass 1  IDiag  1:
 E= -75.7545273576095     Delta-E=       -0.000000000003 Rises=F Damp=F
 DIIS: error= 3.95D-08 at cycle   5 NSaved=   5.
 NSaved= 5 IEnMin= 5 EnMin= -75.7545273576095     IErMin= 5 ErrMin= 3.95D-08
 ErrMax= 3.95D-08  0.00D+00 EMaxC= 1.00D-01 BMatC= 8.70D-14 BMatP= 8.22D-12
 IDIUse=1 WtCom= 1.00D+00 WtEn= 0.00D+00
 Coeff-Com:  0.151D-02 0.159D-01-0.559D-01-0.130D+00 0.117D+01
 Coeff:      0.151D-02 0.159D-01-0.559D-01-0.130D+00 0.117D+01
 Gap=     0.369 Goal=   None    Shift=    0.000
 Gap=     0.148 Goal=   None    Shift=    0.000
 RMSDP=1.04D-08 MaxDP=9.01D-08 DE=-2.94D-12 OVMax= 1.80D-07

 Cycle  12  Pass 1  IDiag  1:
 E= -75.7545273576095     Delta-E=        0.000000000000 Rises=F Damp=F
 DIIS: error= 6.25D-09 at cycle   6 NSaved=   6.
 NSaved= 6 IEnMin= 6 EnMin= -75.7545273576095     IErMin= 6 ErrMin= 6.25D-09
 ErrMax= 6.25D-09  0.00D+00 EMaxC= 1.00D-01 BMatC= 1.72D-15 BMatP= 8.70D-14
 IDIUse=1 WtCom= 1.00D+00 WtEn= 0.00D+00
 Coeff-Com: -0.314D-03 0.436D-02 0.984D-03-0.144D-01-0.146D+00 0.116D+01
 Coeff:     -0.314D-03 0.436D-02 0.984D-03-0.144D-01-0.146D+00 0.116D+01
 Gap=     0.369 Goal=   None    Shift=    0.000
 Gap=     0.148 Goal=   None    Shift=    0.000
 RMSDP=1.39D-09 MaxDP=1.70D-08 DE=-2.84D-14 OVMax= 1.76D-08

 SCF Done:  E(UB3LYP) =  -75.7545273576     A.U. after   12 cycles
            NFock= 12  Conv=0.14D-08     -V/T= 2.0015
 <Sx>= 0.0000 <Sy>= 0.0000 <Sz>= 0.5000 <S**2>= 0.7518 S= 0.5009
 <L.S>= 0.000000000000E+00
 KE= 7.564023793462D+01 PE=-1.884025539845D+02 EE= 3.266648084087D+01
 Annihilation of the first spin contaminant:
 S**2 before annihilation     0.7518,   after     0.7500
 Leave Link  502 at Sat Feb 16 13:49:30 2019, MaxMem=   196608000 cpu:        35.8
 (Enter /cm/shared/c3ddb/gaussian/09.d01/g09/l508.exe)
 QCSCF skips out because SCF is already converged.
 Leave Link  508 at Sat Feb 16 13:49:30 2019, MaxMem=   196608000 cpu:         0.0
 (Enter /cm/shared/c3ddb/gaussian/09.d01/g09/l801.exe)
 DoSCS=F DFT=T ScalE2(SS,OS)=  1.000000  1.000000
 Range of M.O.s used for correlation:     1    24
 NBasis=    24 NAE=     5 NBE=     4 NFC=     0 NFV=     0
 NROrb=     24 NOA=     5 NOB=     4 NVA=    19 NVB=    20
 Leave Link  801 at Sat Feb 16 13:49:30 2019, MaxMem=   196608000 cpu:         0.2
 (Enter /cm/shared/c3ddb/gaussian/09.d01/g09/l1101.exe)
 Using compressed storage, NAtomX=     2.
 Will process      3 centers per pass.
 Leave Link 1101 at Sat Feb 16 13:49:31 2019, MaxMem=   196608000 cpu:         4.3
 (Enter /cm/shared/c3ddb/gaussian/09.d01/g09/l1102.exe)
 Symmetrizing basis deriv contribution to polar:
 IMax=3 JMax=2 DiffMx= 0.00D+00
 Leave Link 1102 at Sat Feb 16 13:49:31 2019, MaxMem=   196608000 cpu:         0.6
 (Enter /cm/shared/c3ddb/gaussian/09.d01/g09/l1110.exe)
 Forming Gx(P) for the SCF density, NAtomX=     2.
 Integral derivatives from FoFJK, PRISM(SPDF).
 Do as many integral derivatives as possible in FoFJK.
 G2DrvN: MDV=     196607880.
 G2DrvN: will do     3 centers at a time, making    1 passes.
 Calling FoFCou, ICntrl=  3107 FMM=F I1Cent=   0 AccDes= 0.00D+00.
 FoFJK:  IHMeth= 1 ICntrl=    3107 DoSepK=F KAlg= 0 I1Cent=   0 FoldK=F
 IRaf=         0 NMat=   1 IRICut=       1 DoRegI=T DoRafI=F ISym2E= 1.
 FoFCou: FMM=F IPFlag=           0 FMFlag=      100000 FMFlg1=           0
         NFxFlg=           0 DoJE=F BraDBF=F KetDBF=F FulRan=T
         wScrn=  0.000000 ICntrl=    3107 IOpCl=  1 I1Cent=           0 NGrid=           0
         NMat0=    1 NMatS0=      1 NMatT0=    0 NMatD0=    1 NMtDS0=    0 NMtDT0=    0
 Petite list used in FoFCou.
 End of G2Drv F.D. properties file   721 does not exist.
 End of G2Drv F.D. properties file   722 does not exist.
 End of G2Drv F.D. properties file   788 does not exist.
 Leave Link 1110 at Sat Feb 16 13:49:32 2019, MaxMem=   196608000 cpu:         7.9
 (Enter /cm/shared/c3ddb/gaussian/09.d01/g09/l1002.exe)
 Minotr:  UHF open shell wavefunction.
          IDoAtm=11
          Direct CPHF calculation.
          Differentiating once with respect to electric field.
                with respect to dipole field.
          Differentiating once with respect to nuclear coordinates.
          Using symmetry in CPHF.
          Requested convergence is 1.0D-08 RMS, and 1.0D-07 maximum.
          Secondary convergence is 1.0D-12 RMS, and 1.0D-12 maximum.
          NewPWx=T KeepS1=F KeepF1=F KeepIn=T MapXYZ=F SortEE=F KeepMc=T.
          MDV=     196607928 using IRadAn=       2.
 Generate precomputed XC quadrature information.
 Keep R1 and R2 ints in memory in symmetry-blocked form, NReq=905432.
 FoFCou: FMM=F IPFlag=           0 FMFlag=           0 FMFlg1=           0
         NFxFlg=           0 DoJE=F BraDBF=F KetDBF=F FulRan=T
         wScrn=  0.000000 ICntrl=     600 IOpCl=  0 I1Cent=           0 NGrid=           0
         NMat0=    1 NMatS0=    300 NMatT0=    0 NMatD0=    1 NMtDS0=    0 NMtDT0=    0
 Petite list used in FoFCou.
          Solving linear equations simultaneously, MaxMat=       0.
          There are     9 degrees of freedom in the 1st order CPHF.  IDoFFX=6 NUNeed=     3.
      6 vectors produced by pass  0 Test12= 1.94D-15 1.11D-08 XBig12= 6.06D+00 1.48D+00.
 AX will form     6 AO Fock derivatives at one time.
      6 vectors produced by pass  1 Test12= 1.94D-15 1.11D-08 XBig12= 6.06D-01 3.19D-01.
      6 vectors produced by pass  2 Test12= 1.94D-15 1.11D-08 XBig12= 7.74D-03 3.56D-02.
      6 vectors produced by pass  3 Test12= 1.94D-15 1.11D-08 XBig12= 4.37D-05 3.27D-03.
      6 vectors produced by pass  4 Test12= 1.94D-15 1.11D-08 XBig12= 3.25D-07 2.11D-04.
      6 vectors produced by pass  5 Test12= 1.94D-15 1.11D-08 XBig12= 1.57D-09 1.89D-05.
      4 vectors produced by pass  6 Test12= 1.94D-15 1.11D-08 XBig12= 7.22D-12 9.50D-07.
      1 vectors produced by pass  7 Test12= 1.94D-15 1.11D-08 XBig12= 2.06D-14 5.71D-08.
 InvSVY:  IOpt=1 It=  1 EMax= 4.44D-16
 Solved reduced A of dimension    41 with     6 vectors.
 FullF1:  Do perturbations    1 to     3.
 Isotropic polarizability for W=    0.000000        4.03 Bohr**3.
 End of Minotr F.D. properties file   721 does not exist.
 End of Minotr F.D. properties file   722 does not exist.
 End of Minotr F.D. properties file   788 does not exist.
 Leave Link 1002 at Sat Feb 16 13:49:39 2019, MaxMem=   196608000 cpu:        46.1
 (Enter /cm/shared/c3ddb/gaussian/09.d01/g09/l601.exe)
 Copying SCF densities to generalized density rwf, IOpCl= 1 IROHF=0.

 **********************************************************************

            Population analysis using the SCF density.

 **********************************************************************

 Orbital symmetries:
 Alpha Orbitals:
       Occupied  (SG) (SG) (SG) (PI) (PI)
       Virtual   (SG) (SG) (PI) (PI) (SG) (SG) (PI) (PI) (SG) (SG)
                 (DLTA) (DLTA) (PI) (PI) (SG) (PI) (PI) (SG) (SG)
 Beta  Orbitals:
       Occupied  (SG) (SG) (SG) (PI)
       Virtual   (PI) (SG) (SG) (PI) (SG) (PI) (SG) (PI) (PI) (SG)
                 (SG) (DLTA) (DLTA) (PI) (PI) (SG) (PI) (PI) (SG)
                 (SG)
 Unable to determine electronic state:  partially filled degenerate orbitals.
 Alpha  occ. eigenvalues --  -19.17855  -1.01091  -0.47045  -0.40876  -0.33537
 Alpha virt. eigenvalues --    0.03359   0.37071   0.70003   0.74368   0.75853
 Alpha virt. eigenvalues --    0.99686   1.30992   1.32771   1.90899   2.33245
 Alpha virt. eigenvalues --    2.74992   2.75046   3.03549   3.09053   3.66979
 Alpha virt. eigenvalues --    4.64188   4.70839   5.26404  49.68445
  Beta  occ. eigenvalues --  -19.15296  -0.94074  -0.44418  -0.30876
  Beta virt. eigenvalues --   -0.16094   0.04096   0.37817   0.75754   0.77308
  Beta virt. eigenvalues --    0.78753   1.03195   1.32579   1.32616   1.91805
  Beta virt. eigenvalues --    2.33606   2.83368   2.84479   3.10372   3.11501
  Beta virt. eigenvalues --    3.69882   4.73088   4.76151   5.28800  49.71068
          Condensed to atoms (all electrons):
               1          2
     1  O    7.986884   0.259723
     2  H    0.259723   0.493670
          Atomic-Atomic Spin Densities.
               1          2
     1  O    1.025162   0.001564
     2  H    0.001564  -0.028290
 Mulliken charges and spin densities:
               1          2
     1  O   -0.246607   1.026726
     2  H    0.246607  -0.026726
 Sum of Mulliken charges =   0.00000   1.00000
 Mulliken charges and spin densities with hydrogens summed into heavy atoms:
               1          2
     1  O    0.000000   1.000000
 APT charges:
               1
     1  O   -0.275174
     2  H    0.275174
 Sum of APT charges =   0.00000
 APT charges with hydrogens summed into heavy atoms:
               1
     1  O    0.000000
 Electronic spatial extent (au):  <R**2>=             15.1204
 Charge=              0.0000 electrons
 Dipole moment (field-independent basis, Debye):
    X=              0.0000    Y=              0.0000    Z=             -1.7594  Tot=              1.7594
 Quadrupole moment (field-independent basis, Debye-Ang):
   XX=             -6.4718   YY=             -5.2970   ZZ=             -4.5088
   XY=              0.0000   XZ=              0.0000   YZ=              0.0000
 Traceless Quadrupole moment (field-independent basis, Debye-Ang):
   XX=             -1.0459   YY=              0.1289   ZZ=              0.9170
   XY=              0.0000   XZ=              0.0000   YZ=              0.0000
 Octapole moment (field-independent basis, Debye-Ang**2):
  XXX=              0.0000  YYY=              0.0000  ZZZ=             -1.8565  XYY=              0.0000
  XXY=              0.0000  XXZ=             -0.2734  XZZ=              0.0000  YZZ=              0.0000
  YYZ=             -0.1693  XYZ=              0.0000
 Hexadecapole moment (field-independent basis, Debye-Ang**3):
 XXXX=             -4.7648 YYYY=             -3.3964 ZZZZ=             -5.0917 XXXY=              0.0000
 XXXZ=              0.0000 YYYX=              0.0000 YYYZ=              0.0000 ZZZX=              0.0000
 ZZZY=              0.0000 XXYY=             -1.3602 XXZZ=             -1.8984 YYZZ=             -1.6487
 XXYZ=              0.0000 YYXZ=              0.0000 ZZXY=              0.0000
 N-N= 4.341307851444D+00 E-N=-1.884025540077D+02  KE= 7.564023793462D+01
 Symmetry A1   KE= 6.823958383817D+01
 Symmetry A2   KE= 3.141097077212D-35
 Symmetry B1   KE= 4.852897531226D+00
 Symmetry B2   KE= 2.547756565227D+00
  Exact polarizability:   2.782   0.000   2.913   0.000   0.000   6.410
 Approx polarizability:   2.799   0.000   3.134   0.000   0.000   7.912
                          Isotropic Fermi Contact Couplings
        Atom                 a.u.       MegaHertz       Gauss      10(-4) cm-1
     1  O(17)              0.04618     -27.99212      -9.98828      -9.33717
     2  H(1)              -0.01498     -66.95716     -23.89198     -22.33451
 --------------------------------------------------------
       Center         ----  Spin Dipole Couplings  ----
                      3XX-RR        3YY-RR        3ZZ-RR
 --------------------------------------------------------
     1   Atom       -1.974025      3.897895     -1.923869
     2   Atom       -0.130591     -0.039217      0.169807
 --------------------------------------------------------
                        XY            XZ            YZ
 --------------------------------------------------------
     1   Atom        0.000000      0.000000      0.000000
     2   Atom        0.000000      0.000000      0.000000
 --------------------------------------------------------


 ---------------------------------------------------------------------------------
              Anisotropic Spin Dipole Couplings in Principal Axis System
 ---------------------------------------------------------------------------------

       Atom             a.u.   MegaHertz   Gauss  10(-4) cm-1        Axes

              Baa    -1.9740   142.839    50.969    47.646  1.0000  0.0000  0.0000
     1 O(17)  Bbb    -1.9239   139.210    49.674    46.435  0.0000  0.0000  1.0000
              Bcc     3.8979  -282.049  -100.642   -94.081  0.0000  1.0000  0.0000
 
              Baa    -0.1306   -69.677   -24.862   -23.242  1.0000  0.0000  0.0000
     2 H(1)   Bbb    -0.0392   -20.924    -7.466    -6.980  0.0000  1.0000  0.0000
              Bcc     0.1698    90.601    32.329    30.221  0.0000  0.0000  1.0000
 

 ---------------------------------------------------------------------------------

 No NMR shielding tensors so no spin-rotation constants.
 Leave Link  601 at Sat Feb 16 13:49:40 2019, MaxMem=   196608000 cpu:         7.0
 (Enter /cm/shared/c3ddb/gaussian/09.d01/g09/l701.exe)
 Compute integral second derivatives.
 ... and contract with generalized density number  0.
 Entering OneElI...
 Calculate overlap and kinetic energy integrals
    NBasis =  25  MinDer = 2  MaxDer = 2
 Requested accuracy = 0.1000D-12
 PrsmSu:  NPrtUS=   8 ThrOK=T IAlg=1 NPAlg=1 LenDen=           0.
 Prism:   IPart=     0 DynPar=F LinDyn=F Incr=           1.
 PRISM was handed    24572783 working-precision words and    45 shell-pairs
 PRISM was handed    24572783 working-precision words and    45 shell-pairs
 PRISM was handed    24572783 working-precision words and    45 shell-pairs
 PRISM was handed    24572783 working-precision words and    45 shell-pairs
 PRISM was handed    24572783 working-precision words and    45 shell-pairs
 PRISM was handed    24572783 working-precision words and    45 shell-pairs
 PRISM was handed    24572783 working-precision words and    45 shell-pairs
 PRISM was handed    24572783 working-precision words and    45 shell-pairs
 IPart=  0 NShTot=          27 NBatch=          27 AvBLen=         1.0
 IPart=  4 NShTot=           0 NBatch=           0 AvBLen=         0.0
 IPart=  7 NShTot=           0 NBatch=           0 AvBLen=         0.0
 IPart=  1 NShTot=          12 NBatch=          12 AvBLen=         1.0
 IPart=  5 NShTot=           0 NBatch=           0 AvBLen=         0.0
 IPart=  2 NShTot=           4 NBatch=           4 AvBLen=         1.0
 IPart=  3 NShTot=           2 NBatch=           2 AvBLen=         1.0
 IPart=  6 NShTot=           0 NBatch=           0 AvBLen=         0.0
 PrSmSu:  NxtVal=              9.
 Entering OneElI...
 Calculate potential energy integrals
    NBasis =  25  MinDer = 2  MaxDer = 2
 Requested accuracy = 0.1000D-12
 PrsmSu:  NPrtUS=   8 ThrOK=T IAlg=1 NPAlg=1 LenDen=           0.
 Prism:   IPart=     0 DynPar=F LinDyn=F Incr=           1.
 PRISM was handed    24572873 working-precision words and    45 shell-pairs
 PRISM was handed    24572873 working-precision words and    45 shell-pairs
 PRISM was handed    24572873 working-precision words and    45 shell-pairs
 PRISM was handed    24572873 working-precision words and    45 shell-pairs
 PRISM was handed    24572873 working-precision words and    45 shell-pairs
 PRISM was handed    24572873 working-precision words and    45 shell-pairs
 PRISM was handed    24572873 working-precision words and    45 shell-pairs
 PRISM was handed    24572873 working-precision words and    45 shell-pairs
 IPart=  0 NShTot=          54 NBatch=          27 AvBLen=         2.0
 IPart=  4 NShTot=           0 NBatch=           0 AvBLen=         0.0
 IPart=  1 NShTot=          24 NBatch=          12 AvBLen=         2.0
 IPart=  7 NShTot=           0 NBatch=           0 AvBLen=         0.0
 IPart=  5 NShTot=           0 NBatch=           0 AvBLen=         0.0
 IPart=  2 NShTot=           8 NBatch=           4 AvBLen=         2.0
 IPart=  3 NShTot=           4 NBatch=           2 AvBLen=         2.0
 IPart=  6 NShTot=           0 NBatch=           0 AvBLen=         0.0
 PrSmSu:  NxtVal=              9.
 Polarizability after L701:
                1             2             3 
      1  0.278223D+01
      2  0.000000D+00  0.291313D+01
      3  0.000000D+00  0.000000D+00  0.640959D+01
 Dipole Derivatives after L701:
                 1             2             3             4             5 
      1  -0.375648D+00  0.000000D+00  0.000000D+00  0.375648D+00  0.000000D+00
      2   0.000000D+00 -0.375594D+00  0.000000D+00  0.000000D+00  0.375594D+00
      3   0.000000D+00  0.000000D+00 -0.742808D-01  0.000000D+00  0.000000D+00
                 6 
      1   0.000000D+00
      2   0.000000D+00
      3   0.742808D-01
 Hessian after L701:
                1             2             3             4             5 
      1  0.292738D+01
      2  0.000000D+00  0.276492D+01
      3  0.000000D+00  0.000000D+00  0.148912D+00
      4 -0.292738D+01  0.000000D+00  0.000000D+00  0.292738D+01
      5  0.000000D+00 -0.276492D+01  0.000000D+00  0.000000D+00  0.276492D+01
      6  0.000000D+00  0.000000D+00 -0.148912D+00  0.000000D+00  0.000000D+00
                6 
      6  0.148912D+00
 Leave Link  701 at Sat Feb 16 13:49:41 2019, MaxMem=   196608000 cpu:         3.6
 (Enter /cm/shared/c3ddb/gaussian/09.d01/g09/l702.exe)
 L702 exits ... SP integral derivatives will be done elsewhere.
 Leave Link  702 at Sat Feb 16 13:49:41 2019, MaxMem=   196608000 cpu:         0.2
 (Enter /cm/shared/c3ddb/gaussian/09.d01/g09/l703.exe)
 Compute integral second derivatives, UseDBF=F ICtDFT=           0.
 Integral derivatives from FoFJK, PRISM(SPDF).
 ICntrl=    100127.
 Calling FoFJK, ICntrl=    100127 FMM=F ISym2X=1 I1Cent= 0 IOpClX= 1 NMat=1 NMatS=1 NMatT=0.
 FoFJK:  IHMeth= 1 ICntrl=  100127 DoSepK=F KAlg= 0 I1Cent=   0 FoldK=F
 IRaf=         0 NMat=   1 IRICut=       1 DoRegI=T DoRafI=F ISym2E= 1.
 FoFCou: FMM=F IPFlag=           0 FMFlag=      100000 FMFlg1=         800
         NFxFlg=           0 DoJE=F BraDBF=F KetDBF=F FulRan=T
         wScrn=  0.000000 ICntrl=  100127 IOpCl=  1 I1Cent=           0 NGrid=           0
         NMat0=    1 NMatS0=      1 NMatT0=    0 NMatD0=    1 NMtDS0=    0 NMtDT0=    0
 Petite list used in FoFCou.
 FoFCou:  KetSym=F NOpSet=  4 NOpAb=4 NOp=  4.
 FoFCou:  CnvScl= 1.00D+00 Thresh= 1.00D-10 IAcrcy=      10.
 PrismS was handed   196597963 working-precision words and    45 shell-pairs
 FoFCou: LinMIO=F DoNuc=F BraDBF=F KetDBF=F HaveP=T PDBF=F HaveZ=T HaveW=F
         NIJTC =      10 NIJTAt=       0 NIJTCD=       0 NIJTT =      10
         IJTBeg=       1 IJTEnd=      10 KLTBeg=       1 KLTEnd=      10
         IPTBeg=       1 IPTEnd=      10 IPTBCv=       1 IPTECv=      10
         IZTBeg=       1 IZTEnd=      10 IZTBCv=       1 IZTECv=      10
         IWTBeg=      11 IWTEnd=      10 IWTBCv=      11 IWTECv=      10
         INTBeg=       1 INTEnd=       0 IFTBCv=       1 IFTECv=      10
 NCel replicated for PrismC:     1
 CoulSu:  IncDef=  1024 NBBP=           1035 NTPThr=   100 NPartT=    8 Incr=           1 LDynOK=F.
 CoulSu:  NPrtUS=   8 ThrOK=T IAlg=1 NPAlg=1 LenDen=           0 LWGrdD=           0 DoCopy=F.
 Enter PrismC: JobTyp=22 DoJE=F Cont=F.
 PrismC:  IPart=     0 DynPar=F LinDyn=F Incr=           1 UseFst=F UseS4=T IGathr=2.
 PrismC was handed    24572787 working-precision words and    45 shell-pairs
 Enter PrismC: JobTyp=22 DoJE=F Cont=F.
 Enter PrismC: JobTyp=22 DoJE=F Cont=F.
 Enter PrismC: JobTyp=22 DoJE=F Cont=F.
 PrismC was handed    24572787 working-precision words and    45 shell-pairs
 PrismC was handed    24572787 working-precision words and    45 shell-pairs
 Enter PrismC: JobTyp=22 DoJE=F Cont=F.
 PrismC was handed    24572787 working-precision words and    45 shell-pairs
 Enter PrismC: JobTyp=22 DoJE=F Cont=F.
 PrismC was handed    24572787 working-precision words and    45 shell-pairs
 Enter PrismC: JobTyp=22 DoJE=F Cont=F.
 PrismC was handed    24572787 working-precision words and    45 shell-pairs
 PrismC was handed    24572787 working-precision words and    45 shell-pairs
 Enter PrismC: JobTyp=22 DoJE=F Cont=F.
 PrismC was handed    24572787 working-precision words and    45 shell-pairs
 IPart=  5 NShTot=          43 NShNF=          43 NShFF=           0 NBatch=          40 AvBLen=         1.1
 IPart=  0 NShTot=         388 NShNF=         388 NShFF=           0 NBatch=         378 AvBLen=         1.0
 IPart=  3 NShTot=         111 NShNF=         111 NShFF=           0 NBatch=         106 AvBLen=         1.0
 IPart=  7 NShTot=          27 NShNF=          27 NShFF=           0 NBatch=          26 AvBLen=         1.0
 IPart=  4 NShTot=          45 NShNF=          45 NShFF=           0 NBatch=          42 AvBLen=         1.1
 IPart=  6 NShTot=          27 NShNF=          27 NShFF=           0 NBatch=          26 AvBLen=         1.0
 IPart=  2 NShTot=         141 NShNF=         141 NShFF=           0 NBatch=         136 AvBLen=         1.0
 IPart=  1 NShTot=         253 NShNF=         253 NShFF=           0 NBatch=         248 AvBLen=         1.0
 CoulSu:  NxtVal=              9.
 ReadGW:  IGet=0 IStart=           1 Next=           1 LGW=           0.
 Remaining memory in FofDFT      187.50 Mw
 CkSvGd:  ISavGI=        -1 IRadAn=       4 IRASav=       0 ISavGd=        -1.
 CalDSu:  NPrtUS=   8 ThrOK=T IAlg=1 NPAlg=2 DoDPD=T LenP=         325 LenD1P=             0.
 IPart=  0 IRanGd=          0 ScrnBf=T ScrnGd=T RCrit=4.00D+00 DoMicB=T.
 IPart=  2          401 of          422 points in       4 batches and        4 microbatches, Max-NSigAt=       2 Max-NSgAt2=       2
 IPart=  5          903 of          932 points in       6 batches and        8 microbatches, Max-NSigAt=       2 Max-NSgAt2=       2
 IPart=  6          335 of          344 points in       2 batches and        2 microbatches, Max-NSigAt=       2 Max-NSgAt2=       2
 IPart=  3          580 of          594 points in       4 batches and        6 microbatches, Max-NSigAt=       2 Max-NSgAt2=       2
 IPart=  0          941 of          963 points in       7 batches and        9 microbatches, Max-NSigAt=       2 Max-NSgAt2=       2
 IPart=  4          607 of          615 points in       4 batches and        9 microbatches, Max-NSigAt=       2 Max-NSgAt2=       2
 IPart=  7          353 of          357 points in       2 batches and        4 microbatches, Max-NSigAt=       2 Max-NSgAt2=       2
 IPart=  1          407 of          426 points in       3 batches and        7 microbatches, Max-NSigAt=       2 Max-NSgAt2=       2
 Polarizability after L703:
                1             2             3 
      1  0.278223D+01
      2  0.000000D+00  0.291313D+01
      3  0.000000D+00  0.000000D+00  0.640959D+01
 Dipole Derivatives after L703:
                 1             2             3             4             5 
      1  -0.375648D+00  0.000000D+00  0.000000D+00  0.375648D+00  0.000000D+00
      2   0.000000D+00 -0.375594D+00  0.000000D+00  0.000000D+00  0.375594D+00
      3   0.000000D+00  0.000000D+00 -0.742808D-01  0.000000D+00  0.000000D+00
                 6 
      1   0.000000D+00
      2   0.000000D+00
      3   0.742808D-01
 Hessian after L703:
                1             2             3             4             5 
      1 -0.378269D-04
      2  0.000000D+00 -0.701911D-04
      3  0.000000D+00  0.000000D+00  0.492650D+00
      4  0.378269D-04  0.000000D+00  0.000000D+00 -0.378269D-04
      5  0.000000D+00  0.701911D-04  0.000000D+00  0.000000D+00 -0.701911D-04
      6  0.000000D+00  0.000000D+00 -0.492650D+00  0.000000D+00  0.000000D+00
                6 
      6  0.492650D+00
 Leave Link  703 at Sat Feb 16 13:49:43 2019, MaxMem=   196608000 cpu:         8.5
 (Enter /cm/shared/c3ddb/gaussian/09.d01/g09/l716.exe)
 FrcOut:
 IF    =    31 IFX   =    37 IFXYZ =    43
 IFFX  =    49 IFFFX =    70 IFLen =     6
 IFFLen=    21 IFFFLn=     0 IEDerv=    70
 LEDerv=   341 IFroze=   507 ICStrt=  1738
 Dipole        = 0.00000000D+00 0.00000000D+00-6.92204959D-01
 DipoleDeriv   =-3.75647963D-01 5.91179221D-12 4.29642247D-11
                -2.08879126D-11-3.75593632D-01 4.19018279D-11
                -1.36932659D-11 2.51246083D-12-7.42807851D-02
                 3.75647963D-01-5.91179221D-12-4.29642247D-11
                 2.08879126D-11 3.75593632D-01-4.19018279D-11
                 1.36932659D-11-2.51246083D-12 7.42807851D-02
 Polarizability= 2.78223077D+00 4.73265130D-11 2.91313000D+00
                 9.01339364D-11-5.41390261D-11 6.40958731D+00
 VibFq2-Diag1:  N=      6 IV=           3 MDV=   196605944 NE2=    32767657
 Full mass-weighted force constant matrix:
 Low frequencies ---  -44.2304  -32.4699   -0.0012    0.0012    0.0019 3705.5206
 OrtVCM:  Ph=1 IPass= 1 DotMx1= 0.00D+00
 OrtVCM:  IS=    1 I=    1 IndO=    1 Dot= 1.00D+00 DotN= 1.00D+00 ElMax1= 9.70D-01 ElMax1N= 9.70D-01
 OrtVCM:  Ph=2 NNew=    0 IAdd=    2 IPass= 1 DotMx2= 0.00D+00
 OrtVCM:  IS=    1 I=    2 IndO=    2 Dot= 1.00D+00 DotN= 1.00D+00 ElMax1= 9.70D-01 ElMax1N= 9.70D-01
 OrtVCM:  Ph=2 NNew=    0 IAdd=    3 IPass= 1 DotMx2= 0.00D+00
 OrtVCM:  IS=    1 I=    3 IndO=    3 Dot= 1.00D+00 DotN= 1.00D+00 ElMax1= 9.70D-01 ElMax1N= 9.70D-01
 OrtVCM:  Ph=2 NNew=    0 IAdd=    4 IPass= 1 DotMx2= 2.78D-17
 OrtVCM:  IS=    1 I=    4 IndO=    4 Dot= 1.00D+00 DotN= 1.00D+00 ElMax1= 9.70D-01 ElMax1N= 9.70D-01
 OrtVCM:  Ph=2 NNew=    0 IAdd=    5 IPass= 1 DotMx2= 2.78D-17
 OrtVCM:  IS=    1 I=    5 IndO=    5 Dot= 1.00D+00 DotN= 1.00D+00 ElMax1= 9.70D-01 ElMax1N= 9.70D-01
 OrtVCM:  Ph=1 IPass= 1 DotMx1= 9.70D-01
 OrtVCM:  Ph=1 IPass= 2 DotMx1= 2.76D-16
 OrtVCM:  IS=    1 I=    1 IndO=    0 Dot= 6.92D-63 DotN= 6.92D-63 ElMax1= 7.90D-32 ElMax1N= 7.90D-32
 SchOr2:  IPass= 1 Test2A= 1.00D-01 IOff=     0 NDo=     1 NNew=     0
 OrtVCM:  Ph=1 IPass= 1 DotMx1= 9.70D-01
 OrtVCM:  Ph=1 IPass= 2 DotMx1= 2.76D-16
 OrtVCM:  IS=    1 I=    1 IndO=    0 Dot= 6.92D-63 DotN= 6.92D-63 ElMax1= 7.90D-32 ElMax1N= 7.90D-32
 SchOr2:  IPass= 1 Test2A= 1.00D-01 IOff=     1 NDo=     1 NNew=     0
 OrtVCM:  Ph=1 IPass= 1 DotMx1= 9.70D-01
 OrtVCM:  Ph=1 IPass= 2 DotMx1= 2.71D-16
 OrtVCM:  IS=    1 I=    1 IndO=    6 Dot= 5.93D-02 DotN= 5.93D-02 ElMax1= 2.36D-01 ElMax1N= 2.36D-01
 SchOr2:  IPass= 1 Test2A= 1.00D-01 IOff=     2 NDo=     1 NNew=     1
 VibFq2-Diag2:  N=      1 IV=           3 MDV=   196605944 NE2=   196605942
 Dipole derivatives wrt mode   1: -4.39095D-10  8.05658D-11 -2.38192D+00
 Vibrational polarizability contributions from mode   1       0.0000000       0.0000000       0.0111196
 Vibrational hyperpolarizability contributions from mode   1       0.0000000       0.0000000       0.0000000
 Diagonal vibrational polarizability:
        0.0000000       0.0000000       0.0111196
 NorSel:  MapVib=      1
 Harmonic frequencies (cm**-1), IR intensities (KM/Mole), Raman scattering
 activities (A**4/AMU), depolarization ratios for plane and unpolarized
 incident light, reduced masses (AMU), force constants (mDyne/A),
 and normal coordinates:
                      1
                     SG
 Frequencies --   3705.5206
 Red. masses --      1.0671
 Frc consts  --      8.6328
 IR Inten    --      5.6736
  Atom  AN      X      Y      Z
     1   8     0.00   0.00   0.06
     2   1     0.00   0.00  -1.00

 -------------------
 - Thermochemistry -
 -------------------
 Temperature   298.150 Kelvin.  Pressure   1.00000 Atm.
 Atom     1 has atomic number  8 and mass  15.99491
 Atom     2 has atomic number  1 and mass   1.00783
 Molecular mass:    17.00274 amu.
 Principal axes and moments of inertia in atomic units:
                           1         2         3
     Eigenvalues --     0.00000   3.21949   3.21949
           X            0.00000   0.00000   1.00000
           Y            0.00000   1.00000   0.00000
           Z            1.00000   0.00000   0.00000
 This molecule is a prolate symmetric top.
 Rotational symmetry number  1.
 Rotational temperature (Kelvin)     26.90297
 Rotational constant (GHZ):         560.567562
 Zero-point vibrational energy      22163.9 (Joules/Mol)
                                    5.29731 (Kcal/Mol)
 Vibrational temperatures:   5331.41
          (Kelvin)
 
 Zero-point correction=                           0.008442 (Hartree/Particle)
 Thermal correction to Energy=                    0.010802
 Thermal correction to Enthalpy=                  0.011746
 Thermal correction to Gibbs Free Energy=        -0.008485
 Sum of electronic and zero-point Energies=            -75.746086
 Sum of electronic and thermal Energies=               -75.743725
 Sum of electronic and thermal Enthalpies=             -75.742781
 Sum of electronic and thermal Free Energies=          -75.763013
 
                     E (Thermal)             CV                S
                      KCal/Mol        Cal/Mol-Kelvin    Cal/Mol-Kelvin
 Total                    6.779              4.968             42.581
 Electronic               0.000              0.000              1.377
 Translational            0.889              2.981             34.437
 Rotational               0.592              1.987              6.767
 Vibrational              5.297              0.000              0.000
                       Q            Log10(Q)             Ln(Q)
 Total Bot       0.799741D+04          3.902949          8.986873
 Total V=0       0.610799D+08          7.785898         17.927693
 Vib (Bot)       0.130934D-03         -3.882949         -8.940820
 Vib (V=0)       0.100000D+01          0.000000          0.000000
 Electronic      0.200000D+01          0.301030          0.693147
 Translational   0.275571D+07          6.440234         14.829186
 Rotational      0.110824D+02          1.044635          2.405360
 Forces in standard orientation:
 -------------------------------------------------------------------
 Center     Atomic                   Forces (Hartrees/Bohr)
 Number     Number              X              Y              Z
 -------------------------------------------------------------------
      1        8           0.000000000    0.000000000   -0.000056335
      2        1           0.000000000    0.000000000    0.000056335
 -------------------------------------------------------------------
 ***** Axes restored to original set *****
 Rotating derivatives, DoTrsp=F IDiff=-2 LEDeriv=    340 LFDPrp=       0 LDFDPr=       0.
 -------------------------------------------------------------------
 Center     Atomic                   Forces (Hartrees/Bohr)
 Number     Number              X              Y              Z
 -------------------------------------------------------------------
      1        8           0.000000000    0.000000000   -0.000056335
      2        1           0.000000000    0.000000000    0.000056335
 -------------------------------------------------------------------
 Cartesian Forces:  Max     0.000056335 RMS     0.000032525
 Z-matrix is all fixed cartesians, so copy forces.
 Force constants in Cartesian coordinates: 
                1             2             3             4             5 
      1 -0.378269D-04
      2  0.000000D+00 -0.701911D-04
      3  0.000000D+00  0.000000D+00  0.492650D+00
      4  0.378269D-04  0.000000D+00  0.000000D+00 -0.378269D-04
      5  0.000000D+00  0.701911D-04  0.000000D+00  0.000000D+00 -0.701911D-04
      6  0.000000D+00  0.000000D+00 -0.492650D+00  0.000000D+00  0.000000D+00
                6 
      6  0.492650D+00
 Final forces over variables, Energy=-7.57545274D+01:
  0.00000000D+00 0.00000000D+00 0.00000000D+00 0.00000000D+00
 -5.63347523D-05 5.63347523D-05
 Leave Link  716 at Sat Feb 16 13:49:43 2019, MaxMem=   196608000 cpu:         1.6
 (Enter /cm/shared/c3ddb/gaussian/09.d01/g09/l103.exe)

 GradGradGradGradGradGradGradGradGradGradGradGradGradGradGradGradGradGrad
 Berny optimization.
 Search for a local minimum.
 Step number   1 out of a maximum of    2
 All quantities printed in internal units (Hartrees-Bohrs-Radians)
 Second derivative matrix not updated -- analytic derivatives used.
 The second derivative matrix:
                          X1        Y1        Z1        X2        Y2
           X1          -0.00004
           Y1           0.00000  -0.00007
           Z1           0.00000   0.00000   0.49265
           X2           0.00004   0.00000   0.00000  -0.00004
           Y2           0.00000   0.00007   0.00000   0.00000  -0.00007
           Z2           0.00000   0.00000  -0.49265   0.00000   0.00000
                          Z2
           Z2           0.49265
 ITU=  0
     Eigenvalues ---    0.80230
 Angle between quadratic step and forces=  25.53 degrees.
 ClnCor:  largest displacement from symmetrization is 0.00D+00 for atom     0.
 Linear search not attempted -- first point.
 ClnCor:  largest displacement from symmetrization is 0.00D+00 for atom     0.
 TrRot=  0.000000  0.000000 -0.000027  0.000000  0.000000  0.000000
 Variable       Old X    -DE/DX   Delta X   Delta X   Delta X     New X
                                 (Linear)    (Quad)   (Total)
    X1        0.00000   0.00000   0.00000   0.00000   0.00000   0.00000
    Y1        0.00000   0.00000   0.00000   0.00000   0.00000   0.00000
    Z1       -0.23072  -0.00006   0.00000  -0.00003  -0.00006  -0.23078
    X2        0.00000   0.00000   0.00000   0.00000   0.00000   0.00000
    Y2        0.00000   0.00000   0.00000   0.00000   0.00000   0.00000
    Z2        1.61204   0.00006   0.00000   0.00008   0.00006   1.61210
         Item               Value     Threshold  Converged?
 Maximum Force            0.000056     0.000450     YES
 RMS     Force            0.000033     0.000300     YES
 Maximum Displacement     0.000057     0.001800     YES
 RMS     Displacement     0.000033     0.001200     YES
 Predicted change in Energy=-3.220955D-09
 Optimization completed.
    -- Stationary point found.
 GradGradGradGradGradGradGradGradGradGradGradGradGradGradGradGradGradGrad

 Leave Link  103 at Sat Feb 16 13:49:43 2019, MaxMem=   196608000 cpu:         2.8
 (Enter /cm/shared/c3ddb/gaussian/09.d01/g09/l9999.exe)

 Test job not archived.
 1\1\GINC-NODE006\Freq\UB3LYP\6-311G(2d,d,p)\H1O1(2)\DUMINDA\16-Feb-201
 9\0\\#P ub3lyp/cbsb7 freq iop(7/33=1) scf=xqc\\name\\0,2\O,0.,0.,-0.12
 2093\H,0.,0.,0.853055\\Version=AS64L-G09RevD.01\HF=-75.7545274\S2=0.75
 1785\S2-1=0.\S2A=0.750002\RMSD=1.389e-09\RMSF=3.252e-05\ZeroPoint=0.00
 84418\Thermal=0.0108023\Dipole=0.,0.,0.692205\DipoleDeriv=-0.375648,0.
 ,0.,0.,-0.3755936,0.,0.,0.,-0.0742808,0.375648,0.,0.,0.,0.3755936,0.,0
 .,0.,0.0742808\Polar=2.7822308,0.,2.91313,0.,0.,6.4095873\PG=C*V [C*(H
 1O1)]\NImag=0\\-0.00003783,0.,-0.00007019,0.,0.,0.49264954,0.00003783,
 0.,0.,-0.00003783,0.,0.00007019,0.,0.,-0.00007019,0.,0.,-0.49264954,0.
 ,0.,0.49264954\\0.,0.,0.00005633,0.,0.,-0.00005633\\\@


 The theorems and results in mathematical physics are
 not theorems and results about Nature, but about our
 description of it.
                   --Gerard 't Hooft
 Job cpu time:       0 days  0 hours  2 minutes 13.9 seconds.
 File lengths (MBytes):  RWF=      5 Int=      0 D2E=      0 Chk=      1 Scr=      1
 Normal termination of Gaussian 09 at Sat Feb 16 13:49:43 2019.
