 Entering Gaussian System, Link 0=g09
 Initial command:
 /cm/shared/c3ddb/gaussian/09.d01/g09/l1.exe "/scratch/users/duminda/g09/a1686-7322576/Gau-10391.inp" -scrdir="/scratch/users/duminda/g09/a1686-7322576/"
 Entering Link 1 = /cm/shared/c3ddb/gaussian/09.d01/g09/l1.exe PID=     10392.
  
 Copyright (c) 1988,1990,1992,1993,1995,1998,2003,2009,2013,
            Gaussian, Inc.  All Rights Reserved.
  
 This is part of the Gaussian(R) 09 program.  It is based on
 the Gaussian(R) 03 system (copyright 2003, Gaussian, Inc.),
 the Gaussian(R) 98 system (copyright 1998, Gaussian, Inc.),
 the Gaussian(R) 94 system (copyright 1995, Gaussian, Inc.),
 the Gaussian 92(TM) system (copyright 1992, Gaussian, Inc.),
 the Gaussian 90(TM) system (copyright 1990, Gaussian, Inc.),
 the Gaussian 88(TM) system (copyright 1988, Gaussian, Inc.),
 the Gaussian 86(TM) system (copyright 1986, Carnegie Mellon
 University), and the Gaussian 82(TM) system (copyright 1983,
 Carnegie Mellon University). Gaussian is a federally registered
 trademark of Gaussian, Inc.
  
 This software contains proprietary and confidential information,
 including trade secrets, belonging to Gaussian, Inc.
  
 This software is provided under written license and may be
 used, copied, transmitted, or stored only in accord with that
 written license.
  
 The following legend is applicable only to US Government
 contracts under FAR:
  
                    RESTRICTED RIGHTS LEGEND
  
 Use, reproduction and disclosure by the US Government is
 subject to restrictions as set forth in subparagraphs (a)
 and (c) of the Commercial Computer Software - Restricted
 Rights clause in FAR 52.227-19.
  
 Gaussian, Inc.
 340 Quinnipiac St., Bldg. 40, Wallingford CT 06492
  
  
 ---------------------------------------------------------------
 Warning -- This program may not be used in any manner that
 competes with the business of Gaussian, Inc. or will provide
 assistance to any competitor of Gaussian, Inc.  The licensee
 of this program is prohibited from giving any competitor of
 Gaussian, Inc. access to this program.  By using this program,
 the user acknowledges that Gaussian, Inc. is engaged in the
 business of creating and licensing software in the field of
 computational chemistry and represents and warrants to the
 licensee that it is not a competitor of Gaussian, Inc. and that
 it will not use this program in any manner prohibited above.
 ---------------------------------------------------------------
  

 Cite this work as:
 Gaussian 09, Revision D.01,
 M. J. Frisch, G. W. Trucks, H. B. Schlegel, G. E. Scuseria, 
 M. A. Robb, J. R. Cheeseman, G. Scalmani, V. Barone, B. Mennucci, 
 G. A. Petersson, H. Nakatsuji, M. Caricato, X. Li, H. P. Hratchian, 
 A. F. Izmaylov, J. Bloino, G. Zheng, J. L. Sonnenberg, M. Hada, 
 M. Ehara, K. Toyota, R. Fukuda, J. Hasegawa, M. Ishida, T. Nakajima, 
 Y. Honda, O. Kitao, H. Nakai, T. Vreven, J. A. Montgomery, Jr., 
 J. E. Peralta, F. Ogliaro, M. Bearpark, J. J. Heyd, E. Brothers, 
 K. N. Kudin, V. N. Staroverov, T. Keith, R. Kobayashi, J. Normand, 
 K. Raghavachari, A. Rendell, J. C. Burant, S. S. Iyengar, J. Tomasi, 
 M. Cossi, N. Rega, J. M. Millam, M. Klene, J. E. Knox, J. B. Cross, 
 V. Bakken, C. Adamo, J. Jaramillo, R. Gomperts, R. E. Stratmann, 
 O. Yazyev, A. J. Austin, R. Cammi, C. Pomelli, J. W. Ochterski, 
 R. L. Martin, K. Morokuma, V. G. Zakrzewski, G. A. Voth, 
 P. Salvador, J. J. Dannenberg, S. Dapprich, A. D. Daniels, 
 O. Farkas, J. B. Foresman, J. V. Ortiz, J. Cioslowski, 
 and D. J. Fox, Gaussian, Inc., Wallingford CT, 2013.
 
 ******************************************
 Gaussian 09:  AS64L-G09RevD.01 24-Apr-2013
                16-Feb-2019 
 ******************************************
 %chk=check.chk
 %mem=1500mb
 %nproc=8
 Will use up to    8 processors via shared memory.
 --------------------------------------------
 #P opt=(noeigentest, calcfc) cbs-qb3 scf=xqc
 --------------------------------------------
 1/10=4,11=1,14=-1,18=20,19=15,26=3,38=1/1,3;
 2/9=110,12=2,17=6,18=5,40=1/2;
 3/5=4,6=6,7=700,11=2,16=1,25=1,30=1,71=2,74=-5,140=1/1,2,3;
 4//1;
 5/5=2,8=3,13=1,38=5/2,8;
 8/6=4,10=90,11=11/1;
 11/6=1,8=1,9=11,15=111,16=1/1,2,10;
 10/6=1,13=1/2;
 6/7=2,8=2,9=2,10=2,28=1/1;
 7/10=1,18=20,25=1/1,2,3,16;
 1/10=4,11=1,14=-1,18=20,19=15,26=3/3(2);
 2/9=110/2;
 99//99;
 2/9=110/2;
 3/5=4,6=6,7=700,11=2,16=1,25=1,30=1,71=1,74=-5/1,2,3;
 4/5=5,16=3,69=1/1;
 5/5=2,8=3,13=1,38=5/2,8;
 7//1,2,3,16;
 1/11=1,14=-1,18=20,19=15,26=3/3(-5);
 2/9=110/2;
 6/7=2,8=2,9=2,10=2,19=2,28=1/1;
 99/9=1/99;
 Leave Link    1 at Sat Feb 16 13:49:10 2019, MaxMem=   196608000 cpu:         0.7
 (Enter /cm/shared/c3ddb/gaussian/09.d01/g09/l101.exe)
 ----
 name
 ----
 Symbolic Z-matrix:
 Charge =  0 Multiplicity = 1
 N                    -0.67473   0.00071  -0.36152 
 N                     0.67473  -0.00054   0.36152 
 H                    -1.1623   -0.82131   0.02351 
 H                    -1.16372   0.81925   0.02907 
 H                     1.16245   0.82123  -0.02385 
 H                     1.16357  -0.81933  -0.02873 
 
 NAtoms=      6 NQM=        6 NQMF=       0 NMMI=      0 NMMIF=      0
                NMic=       0 NMicF=      0.
                    Isotopes and Nuclear Properties:
 (Nuclear quadrupole moments (NQMom) in fm**2, nuclear magnetic moments (NMagM)
  in nuclear magnetons)

  Atom         1           2           3           4           5           6
 IAtWgt=          14          14           1           1           1           1
 AtmWgt=  14.0030740  14.0030740   1.0078250   1.0078250   1.0078250   1.0078250
 NucSpn=           2           2           1           1           1           1
 AtZEff=   0.0000000   0.0000000   0.0000000   0.0000000   0.0000000   0.0000000
 NQMom=    2.0440000   2.0440000   0.0000000   0.0000000   0.0000000   0.0000000
 NMagM=    0.4037610   0.4037610   2.7928460   2.7928460   2.7928460   2.7928460
 AtZNuc=   7.0000000   7.0000000   1.0000000   1.0000000   1.0000000   1.0000000
 Leave Link  101 at Sat Feb 16 13:49:11 2019, MaxMem=   196608000 cpu:         0.7
 (Enter /cm/shared/c3ddb/gaussian/09.d01/g09/l103.exe)

 GradGradGradGradGradGradGradGradGradGradGradGradGradGradGradGradGradGrad
 Berny optimization.
 Initialization pass.
                           ----------------------------
                           !    Initial Parameters    !
                           ! (Angstroms and Degrees)  !
 --------------------------                            --------------------------
 ! Name  Definition              Value          Derivative Info.                !
 --------------------------------------------------------------------------------
 ! R1    R(1,2)                  1.531          calculate D2E/DX2 analytically  !
 ! R2    R(1,3)                  1.0304         calculate D2E/DX2 analytically  !
 ! R3    R(1,4)                  1.0304         calculate D2E/DX2 analytically  !
 ! R4    R(2,5)                  1.0304         calculate D2E/DX2 analytically  !
 ! R5    R(2,6)                  1.0304         calculate D2E/DX2 analytically  !
 ! A1    A(2,1,3)              103.8844         calculate D2E/DX2 analytically  !
 ! A2    A(2,1,4)              103.8829         calculate D2E/DX2 analytically  !
 ! A3    A(3,1,4)              105.5179         calculate D2E/DX2 analytically  !
 ! A4    A(1,2,5)              103.8828         calculate D2E/DX2 analytically  !
 ! A5    A(1,2,6)              103.8844         calculate D2E/DX2 analytically  !
 ! A6    A(5,2,6)              105.5178         calculate D2E/DX2 analytically  !
 ! D1    D(3,1,2,5)            179.9747         calculate D2E/DX2 analytically  !
 ! D2    D(3,1,2,6)             69.7943         calculate D2E/DX2 analytically  !
 ! D3    D(4,1,2,5)            -69.8448         calculate D2E/DX2 analytically  !
 ! D4    D(4,1,2,6)            179.9748         calculate D2E/DX2 analytically  !
 --------------------------------------------------------------------------------
 Trust Radius=3.00D-01 FncErr=1.00D-07 GrdErr=1.00D-06
 Number of steps in this run=     25 maximum allowed number of steps=    100.
 GradGradGradGradGradGradGradGradGradGradGradGradGradGradGradGradGradGrad

 Leave Link  103 at Sat Feb 16 13:49:11 2019, MaxMem=   196608000 cpu:         0.1
 (Enter /cm/shared/c3ddb/gaussian/09.d01/g09/l202.exe)
                          Input orientation:                          
 ---------------------------------------------------------------------
 Center     Atomic      Atomic             Coordinates (Angstroms)
 Number     Number       Type             X           Y           Z
 ---------------------------------------------------------------------
      1          7           0       -0.674726    0.000708   -0.361520
      2          7           0        0.674726   -0.000544    0.361521
      3          1           0       -1.162298   -0.821306    0.023510
      4          1           0       -1.163723    0.819247    0.029067
      5          1           0        1.162447    0.821225   -0.023845
      6          1           0        1.163574   -0.819330   -0.028733
 ---------------------------------------------------------------------
                    Distance matrix (angstroms):
                    1          2          3          4          5
     1  N    0.000000
     2  N    1.530951   0.000000
     3  H    1.030379   2.040235   0.000000
     4  H    1.030380   2.040215   1.640563   0.000000
     5  H    2.040215   1.030380   2.846856   2.326773   0.000000
     6  H    2.040234   1.030379   2.326459   2.846856   1.640563
                    6
     6  H    0.000000
 Stoichiometry    H4N2
 Framework group  C2[X(H4N2)]
 Deg. of freedom     7
 Full point group                 C2      NOp   2
 Largest Abelian subgroup         C2      NOp   2
 Largest concise Abelian subgroup C2      NOp   2
                         Standard orientation:                         
 ---------------------------------------------------------------------
 Center     Atomic      Atomic             Coordinates (Angstroms)
 Number     Number       Type             X           Y           Z
 ---------------------------------------------------------------------
      1          7           0        0.000000    0.765475   -0.000027
      2          7           0        0.000000   -0.765475   -0.000027
      3          1           0        0.572262    1.012729    0.820377
      4          1           0        0.572627    1.012702   -0.820186
      5          1           0       -0.572627   -1.012702   -0.820186
      6          1           0       -0.572262   -1.012729    0.820377
 ---------------------------------------------------------------------
 Rotational constants (GHZ):    134.6421295     23.1127875     21.4714170
 Leave Link  202 at Sat Feb 16 13:49:11 2019, MaxMem=   196608000 cpu:         0.5
 (Enter /cm/shared/c3ddb/gaussian/09.d01/g09/l301.exe)
 Standard basis: 6-311G(2d,d,p) (5D, 7F)
 Ernie: Thresh=  0.10000D-02 Tol=  0.10000D-05 Strict=F.
 There are    31 symmetry adapted cartesian basis functions of A   symmetry.
 There are    31 symmetry adapted cartesian basis functions of B   symmetry.
 There are    30 symmetry adapted basis functions of A   symmetry.
 There are    30 symmetry adapted basis functions of B   symmetry.
    60 basis functions,    96 primitive gaussians,    62 cartesian basis functions
     9 alpha electrons        9 beta electrons
       nuclear repulsion energy        40.0512665142 Hartrees.
 IExCor=  402 DFT=T Ex+Corr=B3LYP ExCW=0 ScaHFX=  0.200000
 ScaDFX=  0.800000  0.720000  1.000000  0.810000 ScalE2=  1.000000  1.000000
 IRadAn=      0 IRanWt=     -1 IRanGd=            0 ICorTp=0 IEmpDi=  4
 NAtoms=    6 NActive=    6 NUniq=    3 SFac= 4.00D+00 NAtFMM=   60 NAOKFM=F Big=F
 Integral buffers will be    131072 words long.
 Raffenetti 2 integral format.
 Two-electron integral symmetry is turned on.
 Leave Link  301 at Sat Feb 16 13:49:11 2019, MaxMem=   196608000 cpu:         0.8
 (Enter /cm/shared/c3ddb/gaussian/09.d01/g09/l302.exe)
 NPDir=0 NMtPBC=     1 NCelOv=     1 NCel=       1 NClECP=     1 NCelD=      1
         NCelK=      1 NCelE2=     1 NClLst=     1 CellRange=     0.0.
 One-electron integrals computed using PRISM.
 One-electron integral symmetry used in STVInt
 NBasis=    60 RedAO= T EigKep=  4.38D-03  NBF=    30    30
 NBsUse=    60 1.00D-06 EigRej= -1.00D+00 NBFU=    30    30
 Precomputing XC quadrature grid using
 IXCGrd= 4 IRadAn=           0 IRanWt=          -1 IRanGd=           0 AccXCQ= 0.00D+00.
 Generated NRdTot=       0 NPtTot=           0 NUsed=           0 NTot=          32
 NSgBfM=    62    62    62    62    62 MxSgAt=     6 MxSgA2=     6.
 Leave Link  302 at Sat Feb 16 13:49:12 2019, MaxMem=   196608000 cpu:         4.8
 (Enter /cm/shared/c3ddb/gaussian/09.d01/g09/l303.exe)
 DipDrv:  MaxL=1.
 Leave Link  303 at Sat Feb 16 13:49:12 2019, MaxMem=   196608000 cpu:         1.5
 (Enter /cm/shared/c3ddb/gaussian/09.d01/g09/l401.exe)
 ExpMin= 1.03D-01 ExpMax= 6.29D+03 ExpMxC= 9.49D+02 IAcc=1 IRadAn=         1 AccDes= 0.00D+00
 Harris functional with IExCor=  402 and IRadAn=       1 diagonalized for initial guess.
 HarFok:  IExCor=  402 AccDes= 0.00D+00 IRadAn=         1 IDoV= 1 UseB2=F ITyADJ=14
 ICtDFT=  3500011 ScaDFX=  1.000000  1.000000  1.000000  1.000000
 FoFCou: FMM=F IPFlag=           0 FMFlag=      100000 FMFlg1=           0
         NFxFlg=           0 DoJE=T BraDBF=F KetDBF=T FulRan=T
         wScrn=  0.000000 ICntrl=     500 IOpCl=  0 I1Cent=   200000004 NGrid=           0
         NMat0=    1 NMatS0=      1 NMatT0=    0 NMatD0=    1 NMtDS0=    0 NMtDT0=    0
 Petite list used in FoFCou.
 Harris En= -111.906801845938    
 JPrj=0 DoOrth=F DoCkMO=F.
 Initial guess orbital symmetries:
       Occupied  (A) (B) (A) (B) (A) (A) (B) (B) (A)
       Virtual   (B) (A) (A) (B) (B) (A) (B) (A) (B) (B) (A) (B)
                 (A) (A) (B) (A) (B) (B) (A) (B) (A) (B) (B) (A)
                 (A) (A) (A) (B) (B) (A) (B) (A) (B) (A) (A) (B)
                 (B) (B) (A) (A) (B) (B) (A) (A) (B) (A) (A) (B)
                 (B) (B) (A)
 The electronic state of the initial guess is 1-A.
 Leave Link  401 at Sat Feb 16 13:49:13 2019, MaxMem=   196608000 cpu:         5.6
 (Enter /cm/shared/c3ddb/gaussian/09.d01/g09/l502.exe)
 Closed shell SCF:
 Using DIIS extrapolation, IDIIS=  1040.
 Integral symmetry usage will be decided dynamically.
 Keep R1 ints in memory in symmetry-blocked form, NReq=2579517.
 IVT=       18530 IEndB=       18530 NGot=   196608000 MDV=   195747026
 LenX=   195747026 LenY=   195742741
 Requested convergence on RMS density matrix=1.00D-08 within  64 cycles.
 Requested convergence on MAX density matrix=1.00D-06.
 Requested convergence on             energy=1.00D-06.
 No special actions if energy rises.
 FoFCou: FMM=F IPFlag=           0 FMFlag=           0 FMFlg1=           0
         NFxFlg=           0 DoJE=F BraDBF=F KetDBF=F FulRan=T
         wScrn=  0.000000 ICntrl=     600 IOpCl=  0 I1Cent=           0 NGrid=           0
         NMat0=    1 NMatS0=   1830 NMatT0=    0 NMatD0=    1 NMtDS0=    0 NMtDT0=    0
 Petite list used in FoFCou.
 Integral accuracy reduced to 1.0D-05 until final iterations.

 Cycle   1  Pass 0  IDiag  1:
 E= -111.828302034325    
 DIIS: error= 4.69D-02 at cycle   1 NSaved=   1.
 NSaved= 1 IEnMin= 1 EnMin= -111.828302034325     IErMin= 1 ErrMin= 4.69D-02
 ErrMax= 4.69D-02  0.00D+00 EMaxC= 1.00D-01 BMatC= 8.84D-02 BMatP= 8.84D-02
 IDIUse=3 WtCom= 5.31D-01 WtEn= 4.69D-01
 Coeff-Com:  0.100D+01
 Coeff-En:   0.100D+01
 Coeff:      0.100D+01
 Gap=     0.159 Goal=   None    Shift=    0.000
 GapD=    0.159 DampG=1.000 DampE=0.500 DampFc=0.5000 IDamp=-1.
 Damping current iteration by 5.00D-01
 RMSDP=6.51D-03 MaxDP=8.65D-02              OVMax= 1.43D-01

 Cycle   2  Pass 0  IDiag  1:
 E= -111.856014767023     Delta-E=       -0.027712732699 Rises=F Damp=T
 DIIS: error= 7.61D-03 at cycle   2 NSaved=   2.
 NSaved= 2 IEnMin= 2 EnMin= -111.856014767023     IErMin= 2 ErrMin= 7.61D-03
 ErrMax= 7.61D-03  0.00D+00 EMaxC= 1.00D-01 BMatC= 5.03D-03 BMatP= 8.84D-02
 IDIUse=3 WtCom= 9.24D-01 WtEn= 7.61D-02
 Coeff-Com:  0.863D-01 0.914D+00
 Coeff-En:   0.193D+00 0.807D+00
 Coeff:      0.944D-01 0.906D+00
 Gap=     0.242 Goal=   None    Shift=    0.000
 RMSDP=9.58D-04 MaxDP=1.04D-02 DE=-2.77D-02 OVMax= 8.14D-02

 Cycle   3  Pass 0  IDiag  1:
 E= -111.895134874479     Delta-E=       -0.039120107456 Rises=F Damp=F
 DIIS: error= 4.03D-03 at cycle   3 NSaved=   3.
 NSaved= 3 IEnMin= 3 EnMin= -111.895134874479     IErMin= 3 ErrMin= 4.03D-03
 ErrMax= 4.03D-03  0.00D+00 EMaxC= 1.00D-01 BMatC= 7.96D-04 BMatP= 5.03D-03
 IDIUse=3 WtCom= 9.60D-01 WtEn= 4.03D-02
 Coeff-Com: -0.170D-01 0.251D+00 0.766D+00
 Coeff-En:   0.000D+00 0.000D+00 0.100D+01
 Coeff:     -0.163D-01 0.241D+00 0.776D+00
 Gap=     0.243 Goal=   None    Shift=    0.000
 RMSDP=3.65D-04 MaxDP=2.98D-03 DE=-3.91D-02 OVMax= 7.27D-03

 Cycle   4  Pass 0  IDiag  1:
 E= -111.895760472335     Delta-E=       -0.000625597855 Rises=F Damp=F
 DIIS: error= 7.06D-04 at cycle   4 NSaved=   4.
 NSaved= 4 IEnMin= 4 EnMin= -111.895760472335     IErMin= 4 ErrMin= 7.06D-04
 ErrMax= 7.06D-04  0.00D+00 EMaxC= 1.00D-01 BMatC= 2.52D-05 BMatP= 7.96D-04
 IDIUse=3 WtCom= 9.93D-01 WtEn= 7.06D-03
 Coeff-Com: -0.430D-02 0.998D-02 0.175D+00 0.820D+00
 Coeff-En:   0.000D+00 0.000D+00 0.000D+00 0.100D+01
 Coeff:     -0.427D-02 0.991D-02 0.173D+00 0.821D+00
 Gap=     0.243 Goal=   None    Shift=    0.000
 RMSDP=5.34D-05 MaxDP=5.46D-04 DE=-6.26D-04 OVMax= 1.16D-03

 Cycle   5  Pass 0  IDiag  1:
 E= -111.895779378448     Delta-E=       -0.000018906114 Rises=F Damp=F
 DIIS: error= 3.42D-05 at cycle   5 NSaved=   5.
 NSaved= 5 IEnMin= 5 EnMin= -111.895779378448     IErMin= 5 ErrMin= 3.42D-05
 ErrMax= 3.42D-05  0.00D+00 EMaxC= 1.00D-01 BMatC= 9.12D-08 BMatP= 2.52D-05
 IDIUse=1 WtCom= 1.00D+00 WtEn= 0.00D+00
 Coeff-Com: -0.139D-03-0.634D-03 0.228D-01 0.123D+00 0.855D+00
 Coeff:     -0.139D-03-0.634D-03 0.228D-01 0.123D+00 0.855D+00
 Gap=     0.243 Goal=   None    Shift=    0.000
 RMSDP=3.11D-06 MaxDP=4.24D-05 DE=-1.89D-05 OVMax= 6.58D-05

 Initial convergence to 1.0D-05 achieved.  Increase integral accuracy.
 Cycle   6  Pass 1  IDiag  1:
 E= -111.895776195096     Delta-E=        0.000003183352 Rises=F Damp=F
 DIIS: error= 6.46D-06 at cycle   1 NSaved=   1.
 NSaved= 1 IEnMin= 1 EnMin= -111.895776195096     IErMin= 1 ErrMin= 6.46D-06
 ErrMax= 6.46D-06  0.00D+00 EMaxC= 1.00D-01 BMatC= 2.66D-09 BMatP= 2.66D-09
 IDIUse=1 WtCom= 1.00D+00 WtEn= 0.00D+00
 Coeff-Com:  0.100D+01
 Coeff:      0.100D+01
 Gap=     0.243 Goal=   None    Shift=    0.000
 RMSDP=3.11D-06 MaxDP=4.24D-05 DE= 3.18D-06 OVMax= 3.27D-05

 Cycle   7  Pass 1  IDiag  1:
 E= -111.895776196959     Delta-E=       -0.000000001863 Rises=F Damp=F
 DIIS: error= 6.48D-06 at cycle   2 NSaved=   2.
 NSaved= 2 IEnMin= 2 EnMin= -111.895776196959     IErMin= 1 ErrMin= 6.46D-06
 ErrMax= 6.48D-06  0.00D+00 EMaxC= 1.00D-01 BMatC= 1.35D-09 BMatP= 2.66D-09
 IDIUse=1 WtCom= 1.00D+00 WtEn= 0.00D+00
 Coeff-Com:  0.396D+00 0.604D+00
 Coeff:      0.396D+00 0.604D+00
 Gap=     0.243 Goal=   None    Shift=    0.000
 RMSDP=5.94D-07 MaxDP=6.62D-06 DE=-1.86D-09 OVMax= 1.16D-05

 Cycle   8  Pass 1  IDiag  1:
 E= -111.895776197930     Delta-E=       -0.000000000971 Rises=F Damp=F
 DIIS: error= 2.52D-06 at cycle   3 NSaved=   3.
 NSaved= 3 IEnMin= 3 EnMin= -111.895776197930     IErMin= 3 ErrMin= 2.52D-06
 ErrMax= 2.52D-06  0.00D+00 EMaxC= 1.00D-01 BMatC= 2.22D-10 BMatP= 1.35D-09
 IDIUse=1 WtCom= 1.00D+00 WtEn= 0.00D+00
 Coeff-Com:  0.349D-01 0.291D+00 0.674D+00
 Coeff:      0.349D-01 0.291D+00 0.674D+00
 Gap=     0.243 Goal=   None    Shift=    0.000
 RMSDP=1.52D-07 MaxDP=2.61D-06 DE=-9.71D-10 OVMax= 3.18D-06

 Cycle   9  Pass 1  IDiag  1:
 E= -111.895776198110     Delta-E=       -0.000000000180 Rises=F Damp=F
 DIIS: error= 1.69D-07 at cycle   4 NSaved=   4.
 NSaved= 4 IEnMin= 4 EnMin= -111.895776198110     IErMin= 4 ErrMin= 1.69D-07
 ErrMax= 1.69D-07  0.00D+00 EMaxC= 1.00D-01 BMatC= 1.43D-12 BMatP= 2.22D-10
 IDIUse=1 WtCom= 1.00D+00 WtEn= 0.00D+00
 Coeff-Com: -0.896D-02 0.382D-01 0.126D+00 0.845D+00
 Coeff:     -0.896D-02 0.382D-01 0.126D+00 0.845D+00
 Gap=     0.243 Goal=   None    Shift=    0.000
 RMSDP=3.33D-08 MaxDP=5.15D-07 DE=-1.80D-10 OVMax= 8.56D-07

 Cycle  10  Pass 1  IDiag  1:
 E= -111.895776198112     Delta-E=       -0.000000000001 Rises=F Damp=F
 DIIS: error= 2.52D-08 at cycle   5 NSaved=   5.
 NSaved= 5 IEnMin= 5 EnMin= -111.895776198112     IErMin= 5 ErrMin= 2.52D-08
 ErrMax= 2.52D-08  0.00D+00 EMaxC= 1.00D-01 BMatC= 3.42D-14 BMatP= 1.43D-12
 IDIUse=1 WtCom= 1.00D+00 WtEn= 0.00D+00
 Coeff-Com: -0.116D-02 0.117D-02-0.257D-03 0.103D+00 0.898D+00
 Coeff:     -0.116D-02 0.117D-02-0.257D-03 0.103D+00 0.898D+00
 Gap=     0.243 Goal=   None    Shift=    0.000
 RMSDP=6.93D-09 MaxDP=7.53D-08 DE=-1.39D-12 OVMax= 2.12D-07

 SCF Done:  E(RB3LYP) =  -111.895776198     A.U. after   10 cycles
            NFock= 10  Conv=0.69D-08     -V/T= 2.0043
 KE= 1.114218198728D+02 PE=-3.420266108436D+02 EE= 7.865774825844D+01
 Leave Link  502 at Sat Feb 16 13:49:21 2019, MaxMem=   196608000 cpu:        45.3
 (Enter /cm/shared/c3ddb/gaussian/09.d01/g09/l508.exe)
 QCSCF skips out because SCF is already converged.
 Leave Link  508 at Sat Feb 16 13:49:21 2019, MaxMem=   196608000 cpu:         0.0
 (Enter /cm/shared/c3ddb/gaussian/09.d01/g09/l801.exe)
 DoSCS=F DFT=T ScalE2(SS,OS)=  1.000000  1.000000
 Range of M.O.s used for correlation:     1    60
 NBasis=    60 NAE=     9 NBE=     9 NFC=     0 NFV=     0
 NROrb=     60 NOA=     9 NOB=     9 NVA=    51 NVB=    51
 Leave Link  801 at Sat Feb 16 13:49:21 2019, MaxMem=   196608000 cpu:         0.2
 (Enter /cm/shared/c3ddb/gaussian/09.d01/g09/l1101.exe)
 Using compressed storage, NAtomX=     6.
 Will process      7 centers per pass.
 Leave Link 1101 at Sat Feb 16 13:49:22 2019, MaxMem=   196608000 cpu:         8.0
 (Enter /cm/shared/c3ddb/gaussian/09.d01/g09/l1102.exe)
 Symmetrizing basis deriv contribution to polar:
 IMax=3 JMax=2 DiffMx= 0.00D+00
 Leave Link 1102 at Sat Feb 16 13:49:23 2019, MaxMem=   196608000 cpu:         0.9
 (Enter /cm/shared/c3ddb/gaussian/09.d01/g09/l1110.exe)
 Forming Gx(P) for the SCF density, NAtomX=     6.
 Integral derivatives from FoFJK, PRISM(SPDF).
 Do as many integral derivatives as possible in FoFJK.
 G2DrvN: MDV=     196607848.
 G2DrvN: will do     7 centers at a time, making    1 passes.
 Calling FoFCou, ICntrl=  3107 FMM=F I1Cent=   0 AccDes= 0.00D+00.
 FoFJK:  IHMeth= 1 ICntrl=    3107 DoSepK=F KAlg= 0 I1Cent=   0 FoldK=F
 IRaf=         0 NMat=   1 IRICut=       1 DoRegI=T DoRafI=F ISym2E= 1.
 FoFCou: FMM=F IPFlag=           0 FMFlag=      100000 FMFlg1=           0
         NFxFlg=           0 DoJE=F BraDBF=F KetDBF=F FulRan=T
         wScrn=  0.000000 ICntrl=    3107 IOpCl=  0 I1Cent=           0 NGrid=           0
         NMat0=    1 NMatS0=      1 NMatT0=    0 NMatD0=    1 NMtDS0=    0 NMtDT0=    0
 Petite list used in FoFCou.
 End of G2Drv F.D. properties file   721 does not exist.
 End of G2Drv F.D. properties file   722 does not exist.
 End of G2Drv F.D. properties file   788 does not exist.
 Leave Link 1110 at Sat Feb 16 13:49:25 2019, MaxMem=   196608000 cpu:        13.3
 (Enter /cm/shared/c3ddb/gaussian/09.d01/g09/l1002.exe)
 Minotr:  Closed shell wavefunction.
          IDoAtm=111111
          Direct CPHF calculation.
          Differentiating once with respect to nuclear coordinates.
          Using symmetry in CPHF.
          Requested convergence is 1.0D-08 RMS, and 1.0D-07 maximum.
          Secondary convergence is 1.0D-12 RMS, and 1.0D-12 maximum.
          NewPWx=T KeepS1=F KeepF1=F KeepIn=T MapXYZ=F SortEE=F KeepMc=T.
          MDV=     196607876 using IRadAn=       2.
 Generate precomputed XC quadrature information.
 Keep R1 ints in memory in symmetry-blocked form, NReq=2561469.
 FoFCou: FMM=F IPFlag=           0 FMFlag=           0 FMFlg1=           0
         NFxFlg=           0 DoJE=F BraDBF=F KetDBF=F FulRan=T
         wScrn=  0.000000 ICntrl=     600 IOpCl=  0 I1Cent=           0 NGrid=           0
         NMat0=    1 NMatS0=   1830 NMatT0=    0 NMatD0=    1 NMtDS0=    0 NMtDT0=    0
 Petite list used in FoFCou.
          Solving linear equations simultaneously, MaxMat=       0.
          There are    12 degrees of freedom in the 1st order CPHF.  IDoFFX=4 NUNeed=    12.
      9 vectors produced by pass  0 Test12= 3.83D-15 8.33D-09 XBig12= 7.94D-02 1.24D-01.
 AX will form     9 AO Fock derivatives at one time.
      9 vectors produced by pass  1 Test12= 3.83D-15 8.33D-09 XBig12= 1.54D-02 5.99D-02.
      9 vectors produced by pass  2 Test12= 3.83D-15 8.33D-09 XBig12= 8.46D-04 1.06D-02.
      9 vectors produced by pass  3 Test12= 3.83D-15 8.33D-09 XBig12= 2.56D-05 1.81D-03.
      9 vectors produced by pass  4 Test12= 3.83D-15 8.33D-09 XBig12= 9.71D-08 6.96D-05.
      8 vectors produced by pass  5 Test12= 3.83D-15 8.33D-09 XBig12= 1.81D-10 4.51D-06.
      3 vectors produced by pass  6 Test12= 3.83D-15 8.33D-09 XBig12= 7.53D-13 2.55D-07.
      1 vectors produced by pass  7 Test12= 3.83D-15 8.33D-09 XBig12= 1.53D-15 1.04D-08.
 InvSVY:  IOpt=1 It=  1 EMax= 1.33D-15
 Solved reduced A of dimension    57 with     9 vectors.
 FullF1:  Do perturbations    4 to    12.
 End of Minotr F.D. properties file   721 does not exist.
 End of Minotr F.D. properties file   722 does not exist.
 End of Minotr F.D. properties file   788 does not exist.
 Leave Link 1002 at Sat Feb 16 13:49:32 2019, MaxMem=   196608000 cpu:        42.6
 (Enter /cm/shared/c3ddb/gaussian/09.d01/g09/l601.exe)
 Copying SCF densities to generalized density rwf, IOpCl= 0 IROHF=0.

 **********************************************************************

            Population analysis using the SCF density.

 **********************************************************************

 Orbital symmetries:
       Occupied  (A) (B) (A) (B) (A) (A) (B) (B) (A)
       Virtual   (A) (B) (A) (B) (B) (A) (B) (A) (B) (B) (A) (B)
                 (A) (A) (B) (A) (B) (B) (A) (B) (A) (B) (B) (A)
                 (A) (A) (B) (A) (B) (A) (B) (A) (B) (A) (A) (B)
                 (B) (B) (A) (A) (B) (B) (A) (A) (B) (A) (A) (B)
                 (B) (B) (A)
 The electronic state is 1-A.
 Alpha  occ. eigenvalues --  -14.31423 -14.31415  -0.91977  -0.75122  -0.51011
 Alpha  occ. eigenvalues --   -0.42689  -0.41317  -0.34204  -0.20601
 Alpha virt. eigenvalues --    0.03730   0.05640   0.09416   0.12911   0.15812
 Alpha virt. eigenvalues --    0.35379   0.37971   0.41514   0.43959   0.58485
 Alpha virt. eigenvalues --    0.59070   0.67039   0.68955   0.73241   0.73916
 Alpha virt. eigenvalues --    0.94038   1.04213   1.16922   1.18958   1.35519
 Alpha virt. eigenvalues --    1.38387   1.61105   1.65084   1.65842   1.66993
 Alpha virt. eigenvalues --    1.75082   1.83466   1.83847   1.91090   2.18258
 Alpha virt. eigenvalues --    2.24424   2.30128   2.35705   2.55066   2.55489
 Alpha virt. eigenvalues --    2.63344   2.65714   2.68471   2.72673   2.80643
 Alpha virt. eigenvalues --    2.98889   3.01341   3.10182   3.59999   3.88756
 Alpha virt. eigenvalues --    4.17985   4.55378   4.71767   4.84491  35.45615
 Alpha virt. eigenvalues --   35.46022
          Condensed to atoms (all electrons):
               1          2          3          4          5          6
     1  N    6.555712   0.215446   0.356582   0.356580  -0.037727  -0.037714
     2  N    0.215446   6.555712  -0.037714  -0.037727   0.356580   0.356582
     3  H    0.356582  -0.037714   0.516479  -0.039429   0.007334  -0.007686
     4  H    0.356580  -0.037727  -0.039429   0.516468  -0.007673   0.007334
     5  H   -0.037727   0.356580   0.007334  -0.007673   0.516468  -0.039429
     6  H   -0.037714   0.356582  -0.007686   0.007334  -0.039429   0.516479
 Mulliken charges:
               1
     1  N   -0.408880
     2  N   -0.408880
     3  H    0.204434
     4  H    0.204446
     5  H    0.204446
     6  H    0.204434
 Sum of Mulliken charges =   0.00000
 Mulliken charges with hydrogens summed into heavy atoms:
               1
     1  N    0.000000
     2  N    0.000000
 APT charges:
               1
     1  N   -0.833623
     2  N   -0.833623
     3  H    0.416805
     4  H    0.416818
     5  H    0.416818
     6  H    0.416805
 Sum of APT charges =   0.00000
 APT charges with hydrogens summed into heavy atoms:
               1
     1  N    0.000000
     2  N    0.000000
 Electronic spatial extent (au):  <R**2>=             86.6871
 Charge=              0.0000 electrons
 Dipole moment (field-independent basis, Debye):
    X=              0.0000    Y=              0.0000    Z=              0.0007  Tot=              0.0007
 Quadrupole moment (field-independent basis, Debye-Ang):
   XX=            -13.9740   YY=            -13.8456   ZZ=            -10.4472
   XY=              4.2298   XZ=              0.0000   YZ=              0.0000
 Traceless Quadrupole moment (field-independent basis, Debye-Ang):
   XX=             -1.2184   YY=             -1.0900   ZZ=              2.3084
   XY=              4.2298   XZ=              0.0000   YZ=              0.0000
 Octapole moment (field-independent basis, Debye-Ang**2):
  XXX=              0.0000  YYY=              0.0000  ZZZ=              0.0014  XYY=              0.0000
  XXY=              0.0000  XXZ=             -0.0007  XZZ=              0.0000  YZZ=              0.0000
  YYZ=              0.0012  XYZ=             -0.0008
 Hexadecapole moment (field-independent basis, Debye-Ang**3):
 XXXX=            -18.5518 YYYY=            -67.8966 ZZZZ=            -18.1856 XXXY=             -1.9431
 XXXZ=              0.0000 YYYX=              1.9281 YYYZ=              0.0000 ZZZX=              0.0000
 ZZZY=              0.0000 XXYY=            -14.4000 XXZZ=             -5.2491 YYZZ=            -11.8060
 XXYZ=              0.0000 YYXZ=              0.0000 ZZXY=              1.2473
 N-N= 4.005126651419D+01 E-N=-3.420266117511D+02  KE= 1.114218198728D+02
 Symmetry A    KE= 5.735793303627D+01
 Symmetry B    KE= 5.406388683655D+01
  Exact polarizability:   0.000   0.000   0.000   0.000   0.000   0.000
 Approx polarizability:  17.879   4.035  26.247   0.000   0.000  24.787
 No NMR shielding tensors so no spin-rotation constants.
 Leave Link  601 at Sat Feb 16 13:49:33 2019, MaxMem=   196608000 cpu:         6.4
 (Enter /cm/shared/c3ddb/gaussian/09.d01/g09/l701.exe)
 Compute integral second derivatives.
 ... and contract with generalized density number  0.
 Leave Link  701 at Sat Feb 16 13:49:34 2019, MaxMem=   196608000 cpu:         4.0
 (Enter /cm/shared/c3ddb/gaussian/09.d01/g09/l702.exe)
 L702 exits ... SP integral derivatives will be done elsewhere.
 Leave Link  702 at Sat Feb 16 13:49:34 2019, MaxMem=   196608000 cpu:         0.1
 (Enter /cm/shared/c3ddb/gaussian/09.d01/g09/l703.exe)
 Compute integral second derivatives, UseDBF=F ICtDFT=           0.
 Integral derivatives from FoFJK, PRISM(SPDF).
 Calling FoFJK, ICntrl=    100147 FMM=F ISym2X=1 I1Cent= 0 IOpClX= 0 NMat=1 NMatS=1 NMatT=0.
 FoFJK:  IHMeth= 1 ICntrl=  100147 DoSepK=F KAlg= 0 I1Cent=   0 FoldK=F
 IRaf=         0 NMat=   1 IRICut=       1 DoRegI=T DoRafI=F ISym2E= 1.
 FoFCou: FMM=F IPFlag=           0 FMFlag=      100000 FMFlg1=         800
         NFxFlg=           0 DoJE=F BraDBF=F KetDBF=F FulRan=T
         wScrn=  0.000000 ICntrl=  100147 IOpCl=  0 I1Cent=           0 NGrid=           0
         NMat0=    1 NMatS0=      1 NMatT0=    0 NMatD0=    1 NMtDS0=    0 NMtDT0=    0
 Petite list used in FoFCou.
 Leave Link  703 at Sat Feb 16 13:49:37 2019, MaxMem=   196608000 cpu:        16.2
 (Enter /cm/shared/c3ddb/gaussian/09.d01/g09/l716.exe)
 Dipole        = 4.75579142D-16 1.99840144D-15 2.82515816D-04
 Polarizability= 0.00000000D+00 0.00000000D+00 0.00000000D+00
                 0.00000000D+00 0.00000000D+00 0.00000000D+00
 ***** Axes restored to original set *****
 -------------------------------------------------------------------
 Center     Atomic                   Forces (Hartrees/Bohr)
 Number     Number              X              Y              Z
 -------------------------------------------------------------------
      1        7           0.013225971   -0.000012241    0.006959091
      2        7          -0.013225971    0.000011487   -0.006959093
      3        1           0.003875557    0.010399313   -0.000013254
      4        1           0.003893491   -0.010392584   -0.000083669
      5        1          -0.003877317   -0.010398951    0.000017485
      6        1          -0.003891732    0.010392976    0.000079441
 -------------------------------------------------------------------
 Cartesian Forces:  Max     0.013225971 RMS     0.007224137
 Force constants in Cartesian coordinates: 
                1             2             3             4             5 
      1  0.398078D+00
      2  0.792292D-04  0.619875D+00
      3 -0.792457D-01  0.125791D-02  0.225392D+00
      4 -0.118532D+00  0.114754D-03 -0.446728D-01  0.398078D+00
      5  0.143066D-03 -0.101443D+00 -0.146515D-03  0.801970D-04  0.619876D+00
      6 -0.446727D-01 -0.146119D-03 -0.663959D-01 -0.792456D-01  0.113028D-02
      7 -0.118950D+00 -0.113830D+00  0.507146D-01 -0.206080D-01 -0.291941D-01
      8 -0.112392D+00 -0.263579D+00  0.904401D-01  0.406615D-02  0.340121D-02
      9  0.759707D-01  0.145411D+00 -0.828835D-01 -0.144888D-01 -0.193247D-01
     10 -0.119337D+00  0.113731D+00  0.516487D-01 -0.206511D-01  0.290776D-01
     11  0.112118D+00 -0.261580D+00 -0.915618D-01 -0.400779D-02  0.332674D-02
     12  0.769850D-01 -0.146492D+00 -0.844966D-01 -0.145486D-01  0.193003D-01
     13 -0.206120D-01 -0.291836D-01  0.106842D-01 -0.118985D+00 -0.113834D+00
     14  0.406290D-02  0.340126D-02  0.148113D-02 -0.112382D+00 -0.263441D+00
     15 -0.144928D-01 -0.193282D-01  0.414150D-02  0.760433D-01  0.145473D+00
     16 -0.206471D-01  0.290882D-01  0.108709D-01 -0.119302D+00  0.113728D+00
     17 -0.401106D-02  0.332673D-02 -0.147089D-02  0.112128D+00 -0.261719D+00
     18 -0.145445D-01  0.192969D-01  0.424242D-02  0.769124D-01 -0.146432D+00
                6             7             8             9            10 
      6  0.225391D+00
      7  0.106831D-01  0.139500D+00
      8  0.148243D-02  0.124180D+00  0.284117D+00
      9  0.412888D-02 -0.531201D-01 -0.108104D+00  0.796518D-01
     10  0.108720D-01  0.969824D-02 -0.176163D-01 -0.621785D-02  0.139930D+00
     11 -0.146967D-02  0.177195D-01 -0.259218D-01 -0.173672D-01 -0.124063D+00
     12  0.425507D-02 -0.612797D-02  0.171769D-01  0.511692D-03 -0.541480D-01
     13  0.507827D-01 -0.806498D-02  0.145087D-02 -0.386374D-02 -0.157947D-02
     14  0.905033D-01  0.144976D-02  0.193239D-02 -0.803072D-03  0.312241D-03
     15 -0.829876D-01 -0.386769D-02 -0.803010D-03 -0.249409D-02  0.171936D-02
     16  0.515805D-01 -0.157538D-02  0.311445D-03  0.171982D-02 -0.806048D-02
     17 -0.915002D-01 -0.324919D-03  0.506280D-04  0.188195D-03 -0.144178D-02
     18 -0.843917D-01  0.171809D-02 -0.192108D-03  0.108528D-02 -0.387422D-02
               11            12            13            14            15 
     11  0.282210D+00
     12  0.109383D+00  0.811322D-01
     13 -0.325714D-03  0.171763D-02  0.139543D+00
     14  0.480584D-04 -0.194017D-03  0.124182D+00  0.283981D+00
     15  0.190112D-03  0.108134D-02 -0.531885D-01 -0.108177D+00  0.797471D-01
     16 -0.144064D-02 -0.387815D-02  0.969825D-02 -0.176248D-01 -0.621361D-02
     17  0.191752D-02  0.825085D-03  0.177111D-01 -0.259219D-01 -0.173548D-01
     18  0.825153D-03 -0.248372D-02 -0.613227D-02  0.171893D-01  0.511771D-03
               16            17            18 
     16  0.139886D+00
     17 -0.124062D+00  0.282347D+00
     18 -0.540795D-01  0.109313D+00  0.810360D-01
 FormGI is forming the generalized inverse of G from B-inverse, IUseBI=4.
 Force constants in internal coordinates: 
                1             2             3             4             5 
      1  0.229876D+00
      2  0.143208D-02  0.400174D+00
      3  0.143708D-02 -0.279575D-02  0.400170D+00
      4  0.143708D-02 -0.202384D-02  0.493951D-03  0.400170D+00
      5  0.143208D-02  0.495479D-03 -0.202384D-02 -0.279575D-02  0.400174D+00
      6  0.460162D-01  0.488477D-02  0.257686D-02  0.404999D-02  0.101304D-02
      7  0.460251D-01  0.257558D-02  0.487963D-02  0.101711D-02  0.405336D-02
      8 -0.182556D-01  0.116592D-01  0.116594D-01 -0.161407D-02 -0.161251D-02
      9  0.460251D-01  0.405336D-02  0.101711D-02  0.487963D-02  0.257558D-02
     10  0.460162D-01  0.101304D-02  0.404999D-02  0.257686D-02  0.488477D-02
     11 -0.182556D-01 -0.161251D-02 -0.161407D-02  0.116594D-01  0.116592D-01
     12  0.000000D+00 -0.768123D-02 -0.762408D-02  0.768086D-02  0.762331D-02
     13 -0.127136D-01 -0.771921D-02 -0.766055D-02 -0.766055D-02 -0.771921D-02
     14  0.127145D-01  0.766130D-02  0.771733D-02  0.771733D-02  0.766130D-02
     15  0.000000D+00  0.762331D-02  0.768086D-02 -0.762408D-02 -0.768123D-02
                6             7             8             9            10 
      6  0.183875D+00
      7 -0.188967D-01  0.183886D+00
      8 -0.432873D-01 -0.432884D-01  0.520422D-01
      9  0.323701D-01 -0.761575D-02 -0.586834D-02  0.183886D+00
     10 -0.762729D-02  0.323701D-01 -0.586474D-02 -0.188967D-01  0.183875D+00
     11 -0.586474D-02 -0.586834D-02  0.347987D-02 -0.432884D-01 -0.432873D-01
     12 -0.331959D-02 -0.558248D-02 -0.131951D-01  0.332768D-02  0.558326D-02
     13 -0.569514D-02 -0.795740D-02 -0.128300D-01 -0.795740D-02 -0.569514D-02
     14  0.795881D-02  0.570260D-02  0.128299D-01  0.570260D-02  0.795881D-02
     15  0.558326D-02  0.332768D-02  0.131950D-01 -0.558248D-02 -0.331959D-02
               11            12            13            14            15 
     11  0.520422D-01
     12  0.131950D-01  0.174808D-01
     13 -0.128300D-01 -0.484688D-04  0.187626D-01
     14  0.128299D-01 -0.454300D-04 -0.188595D-01  0.187687D-01
     15 -0.131951D-01 -0.175747D-01 -0.484688D-04 -0.454300D-04  0.174808D-01
 Leave Link  716 at Sat Feb 16 13:49:37 2019, MaxMem=   196608000 cpu:         0.5
 (Enter /cm/shared/c3ddb/gaussian/09.d01/g09/l103.exe)

 GradGradGradGradGradGradGradGradGradGradGradGradGradGradGradGradGradGrad
 Berny optimization.
 Red2BG is reusing G-inverse.
 Internal  Forces:  Max     0.021744958 RMS     0.008156964
 Search for a local minimum.
 Step number   1 out of a maximum of   25
 All quantities printed in internal units (Hartrees-Bohrs-Radians)
 RMS Force = .81570D-02 SwitMx=.10000D-02 MixMth= 1
 Mixed Optimization -- RFO/linear search
 Second derivative matrix not updated -- analytic derivatives used.
 The second derivative matrix:
                          R1        R2        R3        R4        R5
           R1           0.22988
           R2           0.00143   0.40017
           R3           0.00144  -0.00280   0.40017
           R4           0.00144  -0.00202   0.00049   0.40017
           R5           0.00143   0.00050  -0.00202  -0.00280   0.40017
           A1           0.04602   0.00488   0.00258   0.00405   0.00101
           A2           0.04603   0.00258   0.00488   0.00102   0.00405
           A3          -0.01826   0.01166   0.01166  -0.00161  -0.00161
           A4           0.04603   0.00405   0.00102   0.00488   0.00258
           A5           0.04602   0.00101   0.00405   0.00258   0.00488
           A6          -0.01826  -0.00161  -0.00161   0.01166   0.01166
           D1           0.00000  -0.00768  -0.00762   0.00768   0.00762
           D2          -0.01271  -0.00772  -0.00766  -0.00766  -0.00772
           D3           0.01271   0.00766   0.00772   0.00772   0.00766
           D4           0.00000   0.00762   0.00768  -0.00762  -0.00768
                          A1        A2        A3        A4        A5
           A1           0.18387
           A2          -0.01890   0.18389
           A3          -0.04329  -0.04329   0.05204
           A4           0.03237  -0.00762  -0.00587   0.18389
           A5          -0.00763   0.03237  -0.00586  -0.01890   0.18387
           A6          -0.00586  -0.00587   0.00348  -0.04329  -0.04329
           D1          -0.00332  -0.00558  -0.01320   0.00333   0.00558
           D2          -0.00570  -0.00796  -0.01283  -0.00796  -0.00570
           D3           0.00796   0.00570   0.01283   0.00570   0.00796
           D4           0.00558   0.00333   0.01320  -0.00558  -0.00332
                          A6        D1        D2        D3        D4
           A6           0.05204
           D1           0.01320   0.01748
           D2          -0.01283  -0.00005   0.01876
           D3           0.01283  -0.00005  -0.01886   0.01877
           D4          -0.01320  -0.01757  -0.00005  -0.00005   0.01748
 ITU=  0
     Eigenvalues ---   -0.00031   0.05711   0.05813   0.13122   0.16291
     Eigenvalues ---    0.16429   0.24259   0.32024   0.39902   0.40063
     Eigenvalues ---    0.40136   0.40549
 Eigenvalue     1 is  -3.13D-04 should be greater than     0.000000 Eigenvector:
                          D2        D4        D1        D3        A1
   1                   -0.49986  -0.49981  -0.49981  -0.49976   0.01388
                          A5        A2        A4        R2        R5
   1                    0.01388  -0.01381  -0.01381  -0.00012  -0.00012
 RFO step:  Lambda=-3.84979665D-03 EMin=-3.13000082D-04
 Linear search not attempted -- first point.
 Iteration  1 RMS(Cart)=  0.09210330 RMS(Int)=  0.09144532
 Iteration  2 RMS(Cart)=  0.07440825 RMS(Int)=  0.00407334
 Iteration  3 RMS(Cart)=  0.00381221 RMS(Int)=  0.00002459
 Iteration  4 RMS(Cart)=  0.00000607 RMS(Int)=  0.00002352
 Iteration  5 RMS(Cart)=  0.00000000 RMS(Int)=  0.00002352
 ITry= 1 IFail=0 DXMaxC= 2.64D-01 DCOld= 1.00D+10 DXMaxT= 3.00D-01 DXLimC= 3.00D+00 Rises=F
 ClnCor:  largest displacement from symmetrization is 5.87D-08 for atom     5.
 Variable       Old X    -DE/DX   Delta X   Delta X   Delta X     New X
                                 (Linear)    (Quad)   (Total)
    R1        2.89308  -0.02174   0.00000  -0.09400  -0.09400   2.79908
    R2        1.94713  -0.01014   0.00000  -0.02150  -0.02150   1.92563
    R3        1.94714  -0.01014   0.00000  -0.02168  -0.02168   1.92546
    R4        1.94714  -0.01014   0.00000  -0.02168  -0.02168   1.92546
    R5        1.94713  -0.01014   0.00000  -0.02150  -0.02150   1.92563
    A1        1.81313  -0.00295   0.00000  -0.01088  -0.01089   1.80223
    A2        1.81310  -0.00295   0.00000   0.00990   0.00989   1.82299
    A3        1.84163  -0.00311   0.00000  -0.05074  -0.05079   1.79085
    A4        1.81310  -0.00295   0.00000   0.00990   0.00989   1.82299
    A5        1.81313  -0.00295   0.00000  -0.01088  -0.01089   1.80223
    A6        1.84163  -0.00311   0.00000  -0.05074  -0.05079   1.79085
    D1        3.14115   0.00000   0.00000   0.37485   0.37485  -2.76718
    D2        1.21814   0.00548   0.00000   0.43047   0.43043   1.64857
    D3       -1.21902  -0.00548   0.00000   0.31924   0.31928  -0.89974
    D4        3.14115   0.00000   0.00000   0.37485   0.37485  -2.76718
         Item               Value     Threshold  Converged?
 Maximum Force            0.021745     0.000450     NO 
 RMS     Force            0.008157     0.000300     NO 
 Maximum Displacement     0.263970     0.001800     NO 
 RMS     Displacement     0.165442     0.001200     NO 
 Predicted change in Energy=-2.055442D-03
 Lowest energy point so far.  Saving SCF results.
 GradGradGradGradGradGradGradGradGradGradGradGradGradGradGradGradGradGrad

 Leave Link  103 at Sat Feb 16 13:49:40 2019, MaxMem=   196608000 cpu:        18.4
 (Enter /cm/shared/c3ddb/gaussian/09.d01/g09/l202.exe)
                          Input orientation:                          
 ---------------------------------------------------------------------
 Center     Atomic      Atomic             Coordinates (Angstroms)
 Number     Number       Type             X           Y           Z
 ---------------------------------------------------------------------
      1          7           0       -0.648037   -0.071020   -0.358655
      2          7           0        0.648148   -0.072294    0.358199
      3          1           0       -1.204411   -0.746653    0.163197
      4          1           0       -1.078861    0.816344   -0.103412
      5          1           0        1.077590    0.817347    0.108613
      6          1           0        1.205570   -0.743725   -0.167941
 ---------------------------------------------------------------------
                    Distance matrix (angstroms):
                    1          2          3          4          5
     1  N    0.000000
     2  N    1.481208   0.000000
     3  H    1.019000   1.981101   0.000000
     4  H    1.018908   1.996328   1.590536   0.000000
     5  H    1.996328   1.018908   2.767057   2.166850   0.000000
     6  H    1.981101   1.019000   2.432626   2.767057   1.590536
                    6
     6  H    0.000000
 Stoichiometry    H4N2
 Framework group  C2[X(H4N2)]
 Deg. of freedom     7
 Full point group                 C2      NOp   2
 RotChk:  IX=2 Diff= 1.88D-02
 Largest Abelian subgroup         C2      NOp   2
 Largest concise Abelian subgroup C2      NOp   2
                         Standard orientation:                         
 ---------------------------------------------------------------------
 Center     Atomic      Atomic             Coordinates (Angstroms)
 Number     Number       Type             X           Y           Z
 ---------------------------------------------------------------------
      1          7           0        0.000000    0.740604    0.023886
      2          7           0        0.000000   -0.740604    0.023886
      3          1           0        0.728065    0.974340    0.697421
      4          1           0        0.429057    0.994847   -0.864622
      5          1           0       -0.429057   -0.994847   -0.864622
      6          1           0       -0.728065   -0.974340    0.697421
 ---------------------------------------------------------------------
 Rotational constants (GHZ):    138.4667106     24.4036218     22.9104068
 Leave Link  202 at Sat Feb 16 13:49:40 2019, MaxMem=   196608000 cpu:         0.3
 (Enter /cm/shared/c3ddb/gaussian/09.d01/g09/l301.exe)
 Standard basis: 6-311G(2d,d,p) (5D, 7F)
 Ernie: Thresh=  0.10000D-02 Tol=  0.10000D-05 Strict=F.
 There are    31 symmetry adapted cartesian basis functions of A   symmetry.
 There are    31 symmetry adapted cartesian basis functions of B   symmetry.
 There are    30 symmetry adapted basis functions of A   symmetry.
 There are    30 symmetry adapted basis functions of B   symmetry.
    60 basis functions,    96 primitive gaussians,    62 cartesian basis functions
     9 alpha electrons        9 beta electrons
       nuclear repulsion energy        41.0073836220 Hartrees.
 IExCor=  402 DFT=T Ex+Corr=B3LYP ExCW=0 ScaHFX=  0.200000
 ScaDFX=  0.800000  0.720000  1.000000  0.810000 ScalE2=  1.000000  1.000000
 IRadAn=      0 IRanWt=     -1 IRanGd=            0 ICorTp=0 IEmpDi=  4
 NAtoms=    6 NActive=    6 NUniq=    3 SFac= 4.00D+00 NAtFMM=   60 NAOKFM=F Big=F
 Integral buffers will be    131072 words long.
 Raffenetti 2 integral format.
 Two-electron integral symmetry is turned on.
 Leave Link  301 at Sat Feb 16 13:49:40 2019, MaxMem=   196608000 cpu:         0.3
 (Enter /cm/shared/c3ddb/gaussian/09.d01/g09/l302.exe)
 NPDir=0 NMtPBC=     1 NCelOv=     1 NCel=       1 NClECP=     1 NCelD=      1
         NCelK=      1 NCelE2=     1 NClLst=     1 CellRange=     0.0.
 One-electron integrals computed using PRISM.
 One-electron integral symmetry used in STVInt
 NBasis=    60 RedAO= T EigKep=  3.42D-03  NBF=    30    30
 NBsUse=    60 1.00D-06 EigRej= -1.00D+00 NBFU=    30    30
 Precomputing XC quadrature grid using
 IXCGrd= 4 IRadAn=           0 IRanWt=          -1 IRanGd=           0 AccXCQ= 0.00D+00.
 Generated NRdTot=       0 NPtTot=           0 NUsed=           0 NTot=          32
 NSgBfM=    62    62    62    62    62 MxSgAt=     6 MxSgA2=     6.
 Leave Link  302 at Sat Feb 16 13:49:41 2019, MaxMem=   196608000 cpu:         4.5
 (Enter /cm/shared/c3ddb/gaussian/09.d01/g09/l303.exe)
 DipDrv:  MaxL=1.
 Leave Link  303 at Sat Feb 16 13:49:41 2019, MaxMem=   196608000 cpu:         1.5
 (Enter /cm/shared/c3ddb/gaussian/09.d01/g09/l401.exe)
 Initial guess from the checkpoint file:  "check.chk"
 B after Tr=     0.000000    0.000000    0.000000
         Rot=    0.999994    0.000000    0.000000    0.003365 Ang=   0.39 deg.
 Guess basis will be translated and rotated to current coordinates.
 JPrj=2 DoOrth=T DoCkMO=T.
 Initial guess orbital symmetries:
       Occupied  (A) (B) (A) (B) (A) (A) (B) (B) (A)
       Virtual   (A) (A) (A) (A) (A) (A) (A) (A) (A) (A) (A) (A)
                 (A) (A) (A) (A) (A) (A) (A) (A) (A) (A) (A) (A)
                 (A) (B) (B) (B) (B) (B) (B) (B) (B) (B) (B) (B)
                 (B) (B) (B) (B) (B) (B) (B) (B) (B) (B) (B) (B)
                 (B) (B) (B)
 The electronic state of the initial guess is 1-A.
 Generating alternative initial guess.
 ExpMin= 1.03D-01 ExpMax= 6.29D+03 ExpMxC= 9.49D+02 IAcc=1 IRadAn=         1 AccDes= 0.00D+00
 Harris functional with IExCor=  402 and IRadAn=       1 diagonalized for initial guess.
 HarFok:  IExCor=  402 AccDes= 0.00D+00 IRadAn=         1 IDoV= 1 UseB2=F ITyADJ=14
 ICtDFT=  3500011 ScaDFX=  1.000000  1.000000  1.000000  1.000000
 FoFCou: FMM=F IPFlag=           0 FMFlag=      100000 FMFlg1=           0
         NFxFlg=           0 DoJE=T BraDBF=F KetDBF=T FulRan=T
         wScrn=  0.000000 ICntrl=     500 IOpCl=  0 I1Cent=   200000004 NGrid=           0
         NMat0=    1 NMatS0=      1 NMatT0=    0 NMatD0=    1 NMtDS0=    0 NMtDT0=    0
 Petite list used in FoFCou.
 Harris En= -111.910210839935    
 Leave Link  401 at Sat Feb 16 13:49:44 2019, MaxMem=   196608000 cpu:        13.5
 (Enter /cm/shared/c3ddb/gaussian/09.d01/g09/l502.exe)
 Closed shell SCF:
 Using DIIS extrapolation, IDIIS=  1040.
 Integral symmetry usage will be decided dynamically.
 Keep R1 ints in memory in symmetry-blocked form, NReq=2579517.
 IVT=       18530 IEndB=       18530 NGot=   196608000 MDV=   195747026
 LenX=   195747026 LenY=   195742741
 Requested convergence on RMS density matrix=1.00D-08 within  64 cycles.
 Requested convergence on MAX density matrix=1.00D-06.
 Requested convergence on             energy=1.00D-06.
 No special actions if energy rises.
 FoFCou: FMM=F IPFlag=           0 FMFlag=           0 FMFlg1=           0
         NFxFlg=           0 DoJE=F BraDBF=F KetDBF=F FulRan=T
         wScrn=  0.000000 ICntrl=     600 IOpCl=  0 I1Cent=           0 NGrid=           0
         NMat0=    1 NMatS0=   1830 NMatT0=    0 NMatD0=    1 NMtDS0=    0 NMtDT0=    0
 Petite list used in FoFCou.
 Integral accuracy reduced to 1.0D-05 until final iterations.

 Cycle   1  Pass 0  IDiag  1:
 E= -111.881992048072    
 DIIS: error= 1.15D-02 at cycle   1 NSaved=   1.
 NSaved= 1 IEnMin= 1 EnMin= -111.881992048072     IErMin= 1 ErrMin= 1.15D-02
 ErrMax= 1.15D-02  0.00D+00 EMaxC= 1.00D-01 BMatC= 1.06D-02 BMatP= 1.06D-02
 IDIUse=3 WtCom= 8.85D-01 WtEn= 1.15D-01
 Coeff-Com:  0.100D+01
 Coeff-En:   0.100D+01
 Coeff:      0.100D+01
 Recover alternate guess density for next cycle.
 RMSDP=3.72D-03 MaxDP=3.63D-02              OVMax= 0.00D+00

 Cycle   2  Pass 0  IDiag  1:
 E= -111.824691150604     Delta-E=        0.057300897469 Rises=F Damp=F
 Switch densities from cycles 1 and 2 for lowest energy.
 DIIS: error= 4.12D-02 at cycle   2 NSaved=   2.
 NSaved= 2 IEnMin= 1 EnMin= -111.881992048072     IErMin= 1 ErrMin= 1.15D-02
 ErrMax= 4.12D-02  0.00D+00 EMaxC= 1.00D+00 BMatC= 9.58D-02 BMatP= 1.06D-02
 IDIUse=1 WtCom= 1.00D+00 WtEn= 0.00D+00
 Coeff-Com:  0.896D+00 0.104D+00
 Coeff:      0.896D+00 0.104D+00
 Gap=     0.520 Goal=   None    Shift=    0.000
 RMSDP=2.27D-03 MaxDP=1.81D-02 DE= 5.73D-02 OVMax= 6.09D-02

 Cycle   3  Pass 0  IDiag  1:
 E= -111.896387908766     Delta-E=       -0.071696758162 Rises=F Damp=F
 DIIS: error= 6.13D-03 at cycle   3 NSaved=   3.
 NSaved= 3 IEnMin= 3 EnMin= -111.896387908766     IErMin= 3 ErrMin= 6.13D-03
 ErrMax= 6.13D-03  0.00D+00 EMaxC= 1.00D+00 BMatC= 1.41D-03 BMatP= 1.06D-02
 IDIUse=1 WtCom= 1.00D+00 WtEn= 0.00D+00
 Coeff-Com: -0.308D-01 0.102D+00 0.928D+00
 Coeff:     -0.308D-01 0.102D+00 0.928D+00
 Gap=     0.247 Goal=   None    Shift=    0.000
 RMSDP=5.06D-04 MaxDP=5.89D-03 DE=-7.17D-02 OVMax= 1.11D-02

 Cycle   4  Pass 0  IDiag  1:
 E= -111.897526167871     Delta-E=       -0.001138259105 Rises=F Damp=F
 DIIS: error= 1.32D-03 at cycle   4 NSaved=   4.
 NSaved= 4 IEnMin= 4 EnMin= -111.897526167871     IErMin= 4 ErrMin= 1.32D-03
 ErrMax= 1.32D-03  0.00D+00 EMaxC= 1.00D+00 BMatC= 6.27D-05 BMatP= 1.41D-03
 IDIUse=1 WtCom= 1.00D+00 WtEn= 0.00D+00
 Coeff-Com: -0.150D-01 0.189D-01 0.270D+00 0.726D+00
 Coeff:     -0.150D-01 0.189D-01 0.270D+00 0.726D+00
 Gap=     0.246 Goal=   None    Shift=    0.000
 RMSDP=1.09D-04 MaxDP=9.31D-04 DE=-1.14D-03 OVMax= 2.22D-03

 Cycle   5  Pass 0  IDiag  1:
 E= -111.897578639554     Delta-E=       -0.000052471683 Rises=F Damp=F
 DIIS: error= 1.51D-04 at cycle   5 NSaved=   5.
 NSaved= 5 IEnMin= 5 EnMin= -111.897578639554     IErMin= 5 ErrMin= 1.51D-04
 ErrMax= 1.51D-04  0.00D+00 EMaxC= 1.00D+00 BMatC= 1.20D-06 BMatP= 6.27D-05
 IDIUse=1 WtCom= 1.00D+00 WtEn= 0.00D+00
 Coeff-Com: -0.190D-02-0.682D-03 0.117D-01 0.154D+00 0.837D+00
 Coeff:     -0.190D-02-0.682D-03 0.117D-01 0.154D+00 0.837D+00
 Gap=     0.246 Goal=   None    Shift=    0.000
 RMSDP=1.52D-05 MaxDP=1.24D-04 DE=-5.25D-05 OVMax= 2.91D-04

 Cycle   6  Pass 0  IDiag  1:
 E= -111.897579606208     Delta-E=       -0.000000966654 Rises=F Damp=F
 DIIS: error= 7.58D-06 at cycle   6 NSaved=   6.
 NSaved= 6 IEnMin= 6 EnMin= -111.897579606208     IErMin= 6 ErrMin= 7.58D-06
 ErrMax= 7.58D-06  0.00D+00 EMaxC= 1.00D+00 BMatC= 3.72D-09 BMatP= 1.20D-06
 IDIUse=1 WtCom= 1.00D+00 WtEn= 0.00D+00
 Coeff-Com:  0.827D-04-0.159D-03-0.252D-02 0.787D-04 0.183D-01 0.984D+00
 Coeff:      0.827D-04-0.159D-03-0.252D-02 0.787D-04 0.183D-01 0.984D+00
 Gap=     0.246 Goal=   None    Shift=    0.000
 RMSDP=2.33D-06 MaxDP=1.85D-05 DE=-9.67D-07 OVMax= 5.97D-05

 Initial convergence to 1.0D-05 achieved.  Increase integral accuracy.
 Cycle   7  Pass 1  IDiag  1:
 E= -111.897580067856     Delta-E=       -0.000000461648 Rises=F Damp=F
 DIIS: error= 3.82D-06 at cycle   1 NSaved=   1.
 NSaved= 1 IEnMin= 1 EnMin= -111.897580067856     IErMin= 1 ErrMin= 3.82D-06
 ErrMax= 3.82D-06  0.00D+00 EMaxC= 1.00D+00 BMatC= 9.10D-10 BMatP= 9.10D-10
 IDIUse=1 WtCom= 1.00D+00 WtEn= 0.00D+00
 Coeff-Com:  0.100D+01
 Coeff:      0.100D+01
 Gap=     0.246 Goal=   None    Shift=    0.000
 RMSDP=2.33D-06 MaxDP=1.85D-05 DE=-4.62D-07 OVMax= 1.68D-05

 Cycle   8  Pass 1  IDiag  1:
 E= -111.897580068736     Delta-E=       -0.000000000880 Rises=F Damp=F
 DIIS: error= 1.14D-06 at cycle   2 NSaved=   2.
 NSaved= 2 IEnMin= 2 EnMin= -111.897580068736     IErMin= 2 ErrMin= 1.14D-06
 ErrMax= 1.14D-06  0.00D+00 EMaxC= 1.00D+00 BMatC= 1.05D-10 BMatP= 9.10D-10
 IDIUse=1 WtCom= 1.00D+00 WtEn= 0.00D+00
 Coeff-Com:  0.176D+00 0.824D+00
 Coeff:      0.176D+00 0.824D+00
 Gap=     0.246 Goal=   None    Shift=    0.000
 RMSDP=2.06D-07 MaxDP=2.62D-06 DE=-8.80D-10 OVMax= 4.25D-06

 Cycle   9  Pass 1  IDiag  1:
 E= -111.897580068774     Delta-E=       -0.000000000038 Rises=F Damp=F
 DIIS: error= 1.30D-06 at cycle   3 NSaved=   3.
 NSaved= 3 IEnMin= 3 EnMin= -111.897580068774     IErMin= 2 ErrMin= 1.14D-06
 ErrMax= 1.30D-06  0.00D+00 EMaxC= 1.00D+00 BMatC= 6.19D-11 BMatP= 1.05D-10
 IDIUse=1 WtCom= 1.00D+00 WtEn= 0.00D+00
 Coeff-Com:  0.800D-02 0.432D+00 0.560D+00
 Coeff:      0.800D-02 0.432D+00 0.560D+00
 Gap=     0.246 Goal=   None    Shift=    0.000
 RMSDP=8.91D-08 MaxDP=1.30D-06 DE=-3.81D-11 OVMax= 1.88D-06

 Cycle  10  Pass 1  IDiag  1:
 E= -111.897580068824     Delta-E=       -0.000000000050 Rises=F Damp=F
 DIIS: error= 1.93D-07 at cycle   4 NSaved=   4.
 NSaved= 4 IEnMin= 4 EnMin= -111.897580068824     IErMin= 4 ErrMin= 1.93D-07
 ErrMax= 1.93D-07  0.00D+00 EMaxC= 1.00D+00 BMatC= 1.40D-12 BMatP= 6.19D-11
 IDIUse=1 WtCom= 1.00D+00 WtEn= 0.00D+00
 Coeff-Com: -0.752D-02 0.883D-01 0.193D+00 0.726D+00
 Coeff:     -0.752D-02 0.883D-01 0.193D+00 0.726D+00
 Gap=     0.246 Goal=   None    Shift=    0.000
 RMSDP=1.88D-08 MaxDP=2.37D-07 DE=-4.95D-11 OVMax= 3.93D-07

 Cycle  11  Pass 1  IDiag  1:
 E= -111.897580068825     Delta-E=       -0.000000000002 Rises=F Damp=F
 DIIS: error= 1.42D-08 at cycle   5 NSaved=   5.
 NSaved= 5 IEnMin= 5 EnMin= -111.897580068825     IErMin= 5 ErrMin= 1.42D-08
 ErrMax= 1.42D-08  0.00D+00 EMaxC= 1.00D+00 BMatC= 1.25D-14 BMatP= 1.40D-12
 IDIUse=1 WtCom= 1.00D+00 WtEn= 0.00D+00
 Coeff-Com: -0.107D-02 0.189D-03 0.116D-01 0.968D-01 0.892D+00
 Coeff:     -0.107D-02 0.189D-03 0.116D-01 0.968D-01 0.892D+00
 Gap=     0.246 Goal=   None    Shift=    0.000
 RMSDP=3.65D-09 MaxDP=3.09D-08 DE=-1.56D-12 OVMax= 9.76D-08

 SCF Done:  E(RB3LYP) =  -111.897580069     A.U. after   11 cycles
            NFock= 11  Conv=0.36D-08     -V/T= 2.0029
 KE= 1.115701492232D+02 PE=-3.440030013686D+02 EE= 7.952788845457D+01
 Leave Link  502 at Sat Feb 16 13:49:50 2019, MaxMem=   196608000 cpu:        43.7
 (Enter /cm/shared/c3ddb/gaussian/09.d01/g09/l508.exe)
 QCSCF skips out because SCF is already converged.
 Leave Link  508 at Sat Feb 16 13:49:50 2019, MaxMem=   196608000 cpu:         0.0
 (Enter /cm/shared/c3ddb/gaussian/09.d01/g09/l701.exe)
 Compute integral first derivatives.
 ... and contract with generalized density number  0.
 Leave Link  701 at Sat Feb 16 13:49:51 2019, MaxMem=   196608000 cpu:         4.1
 (Enter /cm/shared/c3ddb/gaussian/09.d01/g09/l702.exe)
 L702 exits ... SP integral derivatives will be done elsewhere.
 Leave Link  702 at Sat Feb 16 13:49:51 2019, MaxMem=   196608000 cpu:         0.2
 (Enter /cm/shared/c3ddb/gaussian/09.d01/g09/l703.exe)
 Compute integral first derivatives, UseDBF=F ICtDFT=           0.
 Integral derivatives from FoFJK, PRISM(SPDF).
 Calling FoFJK, ICntrl=      2127 FMM=F ISym2X=1 I1Cent= 0 IOpClX= 0 NMat=1 NMatS=1 NMatT=0.
 FoFJK:  IHMeth= 1 ICntrl=    2127 DoSepK=F KAlg= 0 I1Cent=   0 FoldK=F
 IRaf=         0 NMat=   1 IRICut=       1 DoRegI=T DoRafI=F ISym2E= 1.
 FoFCou: FMM=F IPFlag=           0 FMFlag=      100000 FMFlg1=         800
         NFxFlg=           0 DoJE=F BraDBF=F KetDBF=F FulRan=T
         wScrn=  0.000000 ICntrl=    2127 IOpCl=  0 I1Cent=           0 NGrid=           0
         NMat0=    1 NMatS0=      1 NMatT0=    0 NMatD0=    1 NMtDS0=    0 NMtDT0=    0
 Petite list used in FoFCou.
 Leave Link  703 at Sat Feb 16 13:49:52 2019, MaxMem=   196608000 cpu:         4.9
 (Enter /cm/shared/c3ddb/gaussian/09.d01/g09/l716.exe)
 Dipole        =-6.66133815D-16 1.33226763D-15-2.46250053D-01
 ***** Axes restored to original set *****
 -------------------------------------------------------------------
 Center     Atomic                   Forces (Hartrees/Bohr)
 Number     Number              X              Y              Z
 -------------------------------------------------------------------
      1        7          -0.002486762    0.000196625    0.001561780
      2        7           0.002486446    0.000210433   -0.001560484
      3        1          -0.000848194   -0.000273201   -0.000873253
      4        1          -0.000546073    0.000073669   -0.000723648
      5        1           0.000545962    0.000069910    0.000724105
      6        1           0.000848622   -0.000277435    0.000871500
 -------------------------------------------------------------------
 Cartesian Forces:  Max     0.002486762 RMS     0.001107838
 Leave Link  716 at Sat Feb 16 13:49:52 2019, MaxMem=   196608000 cpu:         0.2
 (Enter /cm/shared/c3ddb/gaussian/09.d01/g09/l103.exe)

 GradGradGradGradGradGradGradGradGradGradGradGradGradGradGradGradGradGrad
 Berny optimization.
 Using GEDIIS/GDIIS optimizer.
 FormGI is forming the generalized inverse of G from B-inverse, IUseBI=4.
 Internal  Forces:  Max     0.003409158 RMS     0.001351946
 Search for a local minimum.
 Step number   2 out of a maximum of   25
 All quantities printed in internal units (Hartrees-Bohrs-Radians)
 RMS Force = .13519D-02 SwitMx=.10000D-02 MixMth= 1
 Mixed Optimization -- RFO/linear search
 Update second derivatives using D2CorX and points    1    2
 DE= -1.80D-03 DEPred=-2.06D-03 R= 8.78D-01
 TightC=F SS=  1.41D+00  RLast= 7.65D-01 DXNew= 5.0454D-01 2.2936D+00
 Trust test= 8.78D-01 RLast= 7.65D-01 DXMaxT set to 5.05D-01
 The second derivative matrix:
                          R1        R2        R3        R4        R5
           R1           0.24825
           R2           0.00143   0.39662
           R3           0.00095  -0.00655   0.39622
           R4           0.00095  -0.00577  -0.00346   0.39622
           R5           0.00143  -0.00306  -0.00577  -0.00655   0.39662
           A1           0.05793   0.00874   0.00633   0.00781   0.00487
           A2           0.05432   0.00494   0.00716   0.00330   0.00642
           A3          -0.01897   0.01034   0.01028  -0.00299  -0.00293
           A4           0.05432   0.00642   0.00330   0.00716   0.00494
           A5           0.05793   0.00487   0.00781   0.00633   0.00874
           A6          -0.01897  -0.00293  -0.00299   0.01028   0.01034
           D1          -0.00092  -0.00810  -0.00804   0.00726   0.00720
           D2          -0.01961  -0.00874  -0.00855  -0.00855  -0.00874
           D3           0.01778   0.00784   0.00777   0.00777   0.00784
           D4          -0.00092   0.00720   0.00726  -0.00804  -0.00810
                          A1        A2        A3        A4        A5
           A1           0.18742
           A2          -0.01609   0.18605
           A3          -0.04231  -0.04273   0.05158
           A4           0.03518  -0.00545  -0.00531   0.18605
           A5          -0.00409   0.03518  -0.00489  -0.01609   0.18742
           A6          -0.00489  -0.00531   0.00302  -0.04273  -0.04231
           D1          -0.00346  -0.00572  -0.01332   0.00319   0.00544
           D2          -0.00907  -0.01039  -0.01294  -0.01039  -0.00907
           D3           0.01105   0.00787   0.01270   0.00787   0.01105
           D4           0.00544   0.00319   0.01307  -0.00572  -0.00346
                          A6        D1        D2        D3        D4
           A6           0.05158
           D1           0.01307   0.01748
           D2          -0.01294   0.00018   0.02106
           D3           0.01270  -0.00028  -0.02071   0.02015
           D4          -0.01332  -0.01758   0.00018  -0.00028   0.01748
 ITU=  1  0
 Use linear search instead of GDIIS.
     Eigenvalues ---   -0.00035   0.05711   0.06088   0.12502   0.16299
     Eigenvalues ---    0.16425   0.24257   0.34753   0.39258   0.40063
     Eigenvalues ---    0.40136   0.40552
 Eigenvalue     1 is  -3.55D-04 should be greater than     0.000000 Eigenvector:
                          D3        D4        D1        D2        A1
   1                   -0.50377  -0.49977  -0.49977  -0.49577   0.01445
                          A5        A2        A4        R1        A3
   1                    0.01445  -0.01347  -0.01347  -0.00823  -0.00421
 RFO step:  Lambda=-3.54984959D-04 EMin=-3.54981979D-04
 I=     1 Eig=   -3.55D-04 Dot1=  7.79D-07
 I=     1 Stepn=  6.00D-01 RXN=   6.00D-01 EDone=F
 Mixed    1 eigenvectors in step.  Raw Step.Grad=  7.79D-07.
 RFO eigenvector is Hessian eigenvector with negative curvature.
 Taking step of  6.00D-01 in eigenvector direction(s).  Step.Grad= -2.90D-05.
 Quartic linear search produced a step of -0.09756.
 Iteration  1 RMS(Cart)=  0.08584050 RMS(Int)=  0.07106010
 Iteration  2 RMS(Cart)=  0.05832080 RMS(Int)=  0.00225469
 Iteration  3 RMS(Cart)=  0.00203927 RMS(Int)=  0.00001813
 Iteration  4 RMS(Cart)=  0.00000057 RMS(Int)=  0.00001812
 ITry= 1 IFail=0 DXMaxC= 2.34D-01 DCOld= 1.00D+10 DXMaxT= 5.05D-01 DXLimC= 3.00D+00 Rises=F
 ClnCor:  largest displacement from symmetrization is 2.07D-08 for atom     5.
 Variable       Old X    -DE/DX   Delta X   Delta X   Delta X     New X
                                 (Linear)    (Quad)   (Total)
    R1        2.79908   0.00341   0.00917  -0.00494   0.00423   2.80331
    R2        1.92563   0.00020   0.00210  -0.00130   0.00080   1.92643
    R3        1.92546   0.00011   0.00211  -0.00117   0.00095   1.92640
    R4        1.92546   0.00011   0.00211  -0.00117   0.00095   1.92640
    R5        1.92563   0.00020   0.00210  -0.00130   0.00080   1.92643
    A1        1.80223   0.00213   0.00106   0.00867   0.00974   1.81198
    A2        1.82299   0.00152  -0.00096  -0.00808  -0.00904   1.81395
    A3        1.79085  -0.00024   0.00495  -0.00252   0.00247   1.79331
    A4        1.82299   0.00152  -0.00096  -0.00808  -0.00904   1.81395
    A5        1.80223   0.00213   0.00106   0.00867   0.00974   1.81198
    A6        1.79085  -0.00024   0.00495  -0.00252   0.00247   1.79331
    D1       -2.76718  -0.00004  -0.03657  -0.29986  -0.33643  -3.10361
    D2        1.64857  -0.00100  -0.04199  -0.29746  -0.33942   1.30915
    D3       -0.89974   0.00093  -0.03115  -0.30226  -0.33344  -1.23318
    D4       -2.76718  -0.00004  -0.03657  -0.29986  -0.33643  -3.10361
         Item               Value     Threshold  Converged?
 Maximum Force            0.003409     0.000450     NO 
 RMS     Force            0.001352     0.000300     NO 
 Maximum Displacement     0.234014     0.001800     NO 
 RMS     Displacement     0.143043     0.001200     NO 
 Predicted change in Energy=-1.434335D-04
 Lowest energy point so far.  Saving SCF results.
 GradGradGradGradGradGradGradGradGradGradGradGradGradGradGradGradGradGrad

 Leave Link  103 at Sat Feb 16 13:49:55 2019, MaxMem=   196608000 cpu:        16.6
 (Enter /cm/shared/c3ddb/gaussian/09.d01/g09/l202.exe)
                          Input orientation:                          
 ---------------------------------------------------------------------
 Center     Atomic      Atomic             Coordinates (Angstroms)
 Number     Number       Type             X           Y           Z
 ---------------------------------------------------------------------
      1          7           0       -0.647440   -0.006657   -0.361919
      2          7           0        0.647451   -0.007953    0.361872
      3          1           0       -1.153423   -0.793652    0.042855
      4          1           0       -1.141461    0.798970    0.020315
      5          1           0        1.140217    0.800859   -0.015222
      6          1           0        1.154657   -0.791567   -0.047901
 ---------------------------------------------------------------------
                    Distance matrix (angstroms):
                    1          2          3          4          5
     1  N    0.000000
     2  N    1.483448   0.000000
     3  H    1.019423   1.990538   0.000000
     4  H    1.019409   1.991983   1.592827   0.000000
     5  H    1.991983   1.019409   2.794033   2.281956   0.000000
     6  H    1.990538   1.019423   2.309865   2.794033   1.592827
                    6
     6  H    0.000000
 Stoichiometry    H4N2
 Framework group  C2[X(H4N2)]
 Deg. of freedom     7
 Full point group                 C2      NOp   2
 RotChk:  IX=2 Diff= 6.38D-03
 Largest Abelian subgroup         C2      NOp   2
 Largest concise Abelian subgroup C2      NOp   2
                         Standard orientation:                         
 ---------------------------------------------------------------------
 Center     Atomic      Atomic             Coordinates (Angstroms)
 Number     Number       Type             X           Y           Z
 ---------------------------------------------------------------------
      1          7           0        0.000000    0.741724    0.002435
      2          7           0        0.000000   -0.741724    0.002435
      3          1           0        0.602683    0.985212    0.787744
      4          1           0        0.572141    0.987160   -0.804789
      5          1           0       -0.572141   -0.987160   -0.804789
      6          1           0       -0.602683   -0.985212    0.787744
 ---------------------------------------------------------------------
 Rotational constants (GHZ):    138.4856583     24.3904686     22.7813603
 Leave Link  202 at Sat Feb 16 13:49:55 2019, MaxMem=   196608000 cpu:         0.2
 (Enter /cm/shared/c3ddb/gaussian/09.d01/g09/l301.exe)
 Standard basis: 6-311G(2d,d,p) (5D, 7F)
 Ernie: Thresh=  0.10000D-02 Tol=  0.10000D-05 Strict=F.
 There are    31 symmetry adapted cartesian basis functions of A   symmetry.
 There are    31 symmetry adapted cartesian basis functions of B   symmetry.
 There are    30 symmetry adapted basis functions of A   symmetry.
 There are    30 symmetry adapted basis functions of B   symmetry.
    60 basis functions,    96 primitive gaussians,    62 cartesian basis functions
     9 alpha electrons        9 beta electrons
       nuclear repulsion energy        40.9593242460 Hartrees.
 IExCor=  402 DFT=T Ex+Corr=B3LYP ExCW=0 ScaHFX=  0.200000
 ScaDFX=  0.800000  0.720000  1.000000  0.810000 ScalE2=  1.000000  1.000000
 IRadAn=      0 IRanWt=     -1 IRanGd=            0 ICorTp=0 IEmpDi=  4
 NAtoms=    6 NActive=    6 NUniq=    3 SFac= 4.00D+00 NAtFMM=   60 NAOKFM=F Big=F
 Integral buffers will be    131072 words long.
 Raffenetti 2 integral format.
 Two-electron integral symmetry is turned on.
 Leave Link  301 at Sat Feb 16 13:49:55 2019, MaxMem=   196608000 cpu:         0.3
 (Enter /cm/shared/c3ddb/gaussian/09.d01/g09/l302.exe)
 NPDir=0 NMtPBC=     1 NCelOv=     1 NCel=       1 NClECP=     1 NCelD=      1
         NCelK=      1 NCelE2=     1 NClLst=     1 CellRange=     0.0.
 One-electron integrals computed using PRISM.
 One-electron integral symmetry used in STVInt
 NBasis=    60 RedAO= T EigKep=  3.63D-03  NBF=    30    30
 NBsUse=    60 1.00D-06 EigRej= -1.00D+00 NBFU=    30    30
 Precomputing XC quadrature grid using
 IXCGrd= 4 IRadAn=           0 IRanWt=          -1 IRanGd=           0 AccXCQ= 0.00D+00.
 Generated NRdTot=       0 NPtTot=           0 NUsed=           0 NTot=          32
 NSgBfM=    62    62    62    62    62 MxSgAt=     6 MxSgA2=     6.
 Leave Link  302 at Sat Feb 16 13:49:56 2019, MaxMem=   196608000 cpu:         5.1
 (Enter /cm/shared/c3ddb/gaussian/09.d01/g09/l303.exe)
 DipDrv:  MaxL=1.
 Leave Link  303 at Sat Feb 16 13:49:56 2019, MaxMem=   196608000 cpu:         1.0
 (Enter /cm/shared/c3ddb/gaussian/09.d01/g09/l401.exe)
 Initial guess from the checkpoint file:  "check.chk"
 B after Tr=     0.000000    0.000000    0.000000
         Rot=    0.999999    0.000000    0.000000    0.001203 Ang=   0.14 deg.
 Guess basis will be translated and rotated to current coordinates.
 JPrj=2 DoOrth=T DoCkMO=T.
 Initial guess orbital symmetries:
       Occupied  (A) (B) (A) (B) (A) (A) (B) (B) (A)
       Virtual   (A) (A) (A) (A) (A) (A) (A) (A) (A) (A) (A) (A)
                 (A) (A) (A) (A) (A) (A) (A) (A) (A) (A) (A) (A)
                 (A) (B) (B) (B) (B) (B) (B) (B) (B) (B) (B) (B)
                 (B) (B) (B) (B) (B) (B) (B) (B) (B) (B) (B) (B)
                 (B) (B) (B)
 The electronic state of the initial guess is 1-A.
 Generating alternative initial guess.
 ExpMin= 1.03D-01 ExpMax= 6.29D+03 ExpMxC= 9.49D+02 IAcc=1 IRadAn=         1 AccDes= 0.00D+00
 Harris functional with IExCor=  402 and IRadAn=       1 diagonalized for initial guess.
 HarFok:  IExCor=  402 AccDes= 0.00D+00 IRadAn=         1 IDoV= 1 UseB2=F ITyADJ=14
 ICtDFT=  3500011 ScaDFX=  1.000000  1.000000  1.000000  1.000000
 FoFCou: FMM=F IPFlag=           0 FMFlag=      100000 FMFlg1=           0
         NFxFlg=           0 DoJE=T BraDBF=F KetDBF=T FulRan=T
         wScrn=  0.000000 ICntrl=     500 IOpCl=  0 I1Cent=   200000004 NGrid=           0
         NMat0=    1 NMatS0=      1 NMatT0=    0 NMatD0=    1 NMtDS0=    0 NMtDT0=    0
 Petite list used in FoFCou.
 Harris En= -111.910319598575    
 Leave Link  401 at Sat Feb 16 13:49:58 2019, MaxMem=   196608000 cpu:         8.3
 (Enter /cm/shared/c3ddb/gaussian/09.d01/g09/l502.exe)
 Closed shell SCF:
 Using DIIS extrapolation, IDIIS=  1040.
 Integral symmetry usage will be decided dynamically.
 Keep R1 ints in memory in symmetry-blocked form, NReq=2579517.
 IVT=       18530 IEndB=       18530 NGot=   196608000 MDV=   195747026
 LenX=   195747026 LenY=   195742741
 Requested convergence on RMS density matrix=1.00D-08 within  64 cycles.
 Requested convergence on MAX density matrix=1.00D-06.
 Requested convergence on             energy=1.00D-06.
 No special actions if energy rises.
 FoFCou: FMM=F IPFlag=           0 FMFlag=           0 FMFlg1=           0
         NFxFlg=           0 DoJE=F BraDBF=F KetDBF=F FulRan=T
         wScrn=  0.000000 ICntrl=     600 IOpCl=  0 I1Cent=           0 NGrid=           0
         NMat0=    1 NMatS0=   1830 NMatT0=    0 NMatD0=    1 NMtDS0=    0 NMtDT0=    0
 Petite list used in FoFCou.
 Integral accuracy reduced to 1.0D-05 until final iterations.

 Cycle   1  Pass 0  IDiag  1:
 E= -111.885735145916    
 DIIS: error= 1.11D-02 at cycle   1 NSaved=   1.
 NSaved= 1 IEnMin= 1 EnMin= -111.885735145916     IErMin= 1 ErrMin= 1.11D-02
 ErrMax= 1.11D-02  0.00D+00 EMaxC= 1.00D-01 BMatC= 8.01D-03 BMatP= 8.01D-03
 IDIUse=3 WtCom= 8.89D-01 WtEn= 1.11D-01
 Coeff-Com:  0.100D+01
 Coeff-En:   0.100D+01
 Coeff:      0.100D+01
 Recover alternate guess density for next cycle.
 RMSDP=3.62D-03 MaxDP=3.65D-02              OVMax= 0.00D+00

 Cycle   2  Pass 0  IDiag  1:
 E= -111.825187921596     Delta-E=        0.060547224320 Rises=F Damp=F
 Switch densities from cycles 1 and 2 for lowest energy.
 DIIS: error= 4.67D-02 at cycle   2 NSaved=   2.
 NSaved= 2 IEnMin= 1 EnMin= -111.885735145916     IErMin= 1 ErrMin= 1.11D-02
 ErrMax= 4.67D-02  0.00D+00 EMaxC= 1.00D+00 BMatC= 9.53D-02 BMatP= 8.01D-03
 IDIUse=1 WtCom= 1.00D+00 WtEn= 0.00D+00
 Coeff-Com:  0.931D+00 0.691D-01
 Coeff:      0.931D+00 0.691D-01
 Gap=     0.527 Goal=   None    Shift=    0.000
 RMSDP=1.95D-03 MaxDP=1.58D-02 DE= 6.05D-02 OVMax= 5.27D-02

 Cycle   3  Pass 0  IDiag  1:
 E= -111.896847035075     Delta-E=       -0.071659113479 Rises=F Damp=F
 DIIS: error= 4.68D-03 at cycle   3 NSaved=   3.
 NSaved= 3 IEnMin= 3 EnMin= -111.896847035075     IErMin= 3 ErrMin= 4.68D-03
 ErrMax= 4.68D-03  0.00D+00 EMaxC= 1.00D+00 BMatC= 9.05D-04 BMatP= 8.01D-03
 IDIUse=1 WtCom= 1.00D+00 WtEn= 0.00D+00
 Coeff-Com: -0.385D-01 0.832D-01 0.955D+00
 Coeff:     -0.385D-01 0.832D-01 0.955D+00
 Gap=     0.245 Goal=   None    Shift=    0.000
 RMSDP=4.17D-04 MaxDP=5.04D-03 DE=-7.17D-02 OVMax= 9.10D-03

 Cycle   4  Pass 0  IDiag  1:
 E= -111.897586563921     Delta-E=       -0.000739528846 Rises=F Damp=F
 DIIS: error= 1.23D-03 at cycle   4 NSaved=   4.
 NSaved= 4 IEnMin= 4 EnMin= -111.897586563921     IErMin= 4 ErrMin= 1.23D-03
 ErrMax= 1.23D-03  0.00D+00 EMaxC= 1.00D+00 BMatC= 5.48D-05 BMatP= 9.05D-04
 IDIUse=1 WtCom= 1.00D+00 WtEn= 0.00D+00
 Coeff-Com: -0.193D-01 0.161D-01 0.297D+00 0.706D+00
 Coeff:     -0.193D-01 0.161D-01 0.297D+00 0.706D+00
 Gap=     0.244 Goal=   None    Shift=    0.000
 RMSDP=1.01D-04 MaxDP=7.96D-04 DE=-7.40D-04 OVMax= 2.06D-03

 Cycle   5  Pass 0  IDiag  1:
 E= -111.897632679333     Delta-E=       -0.000046115413 Rises=F Damp=F
 DIIS: error= 1.06D-04 at cycle   5 NSaved=   5.
 NSaved= 5 IEnMin= 5 EnMin= -111.897632679333     IErMin= 5 ErrMin= 1.06D-04
 ErrMax= 1.06D-04  0.00D+00 EMaxC= 1.00D+00 BMatC= 6.74D-07 BMatP= 5.48D-05
 IDIUse=1 WtCom= 1.00D+00 WtEn= 0.00D+00
 Coeff-Com: -0.147D-02-0.899D-03 0.804D-02 0.125D+00 0.869D+00
 Coeff:     -0.147D-02-0.899D-03 0.804D-02 0.125D+00 0.869D+00
 Gap=     0.244 Goal=   None    Shift=    0.000
 RMSDP=1.10D-05 MaxDP=6.63D-05 DE=-4.61D-05 OVMax= 2.05D-04

 Cycle   6  Pass 0  IDiag  1:
 E= -111.897633232489     Delta-E=       -0.000000553156 Rises=F Damp=F
 DIIS: error= 7.80D-06 at cycle   6 NSaved=   6.
 NSaved= 6 IEnMin= 6 EnMin= -111.897633232489     IErMin= 6 ErrMin= 7.80D-06
 ErrMax= 7.80D-06  0.00D+00 EMaxC= 1.00D+00 BMatC= 3.39D-09 BMatP= 6.74D-07
 IDIUse=1 WtCom= 1.00D+00 WtEn= 0.00D+00
 Coeff-Com:  0.140D-03-0.786D-04-0.338D-02-0.527D-02-0.168D-01 0.103D+01
 Coeff:      0.140D-03-0.786D-04-0.338D-02-0.527D-02-0.168D-01 0.103D+01
 Gap=     0.244 Goal=   None    Shift=    0.000
 RMSDP=1.96D-06 MaxDP=1.60D-05 DE=-5.53D-07 OVMax= 5.62D-05

 Initial convergence to 1.0D-05 achieved.  Increase integral accuracy.
 Cycle   7  Pass 1  IDiag  1:
 E= -111.897630198719     Delta-E=        0.000003033771 Rises=F Damp=F
 DIIS: error= 5.56D-06 at cycle   1 NSaved=   1.
 NSaved= 1 IEnMin= 1 EnMin= -111.897630198719     IErMin= 1 ErrMin= 5.56D-06
 ErrMax= 5.56D-06  0.00D+00 EMaxC= 1.00D+00 BMatC= 1.28D-09 BMatP= 1.28D-09
 IDIUse=1 WtCom= 1.00D+00 WtEn= 0.00D+00
 Coeff-Com:  0.100D+01
 Coeff:      0.100D+01
 Gap=     0.244 Goal=   None    Shift=    0.000
 RMSDP=1.96D-06 MaxDP=1.60D-05 DE= 3.03D-06 OVMax= 2.31D-05

 Cycle   8  Pass 1  IDiag  1:
 E= -111.897630200264     Delta-E=       -0.000000001546 Rises=F Damp=F
 DIIS: error= 7.89D-07 at cycle   2 NSaved=   2.
 NSaved= 2 IEnMin= 2 EnMin= -111.897630200264     IErMin= 2 ErrMin= 7.89D-07
 ErrMax= 7.89D-07  0.00D+00 EMaxC= 1.00D+00 BMatC= 3.93D-11 BMatP= 1.28D-09
 IDIUse=1 WtCom= 1.00D+00 WtEn= 0.00D+00
 Coeff-Com:  0.274D-01 0.973D+00
 Coeff:      0.274D-01 0.973D+00
 Gap=     0.244 Goal=   None    Shift=    0.000
 RMSDP=2.13D-07 MaxDP=3.30D-06 DE=-1.55D-09 OVMax= 3.81D-06

 Cycle   9  Pass 1  IDiag  1:
 E= -111.897630200277     Delta-E=       -0.000000000012 Rises=F Damp=F
 DIIS: error= 9.30D-07 at cycle   3 NSaved=   3.
 NSaved= 3 IEnMin= 3 EnMin= -111.897630200277     IErMin= 2 ErrMin= 7.89D-07
 ErrMax= 9.30D-07  0.00D+00 EMaxC= 1.00D+00 BMatC= 3.57D-11 BMatP= 3.93D-11
 IDIUse=1 WtCom= 1.00D+00 WtEn= 0.00D+00
 Coeff-Com: -0.121D-01 0.491D+00 0.522D+00
 Coeff:     -0.121D-01 0.491D+00 0.522D+00
 Gap=     0.244 Goal=   None    Shift=    0.000
 RMSDP=7.75D-08 MaxDP=9.66D-07 DE=-1.24D-11 OVMax= 1.53D-06

 Cycle  10  Pass 1  IDiag  1:
 E= -111.897630200305     Delta-E=       -0.000000000029 Rises=F Damp=F
 DIIS: error= 1.94D-07 at cycle   4 NSaved=   4.
 NSaved= 4 IEnMin= 4 EnMin= -111.897630200305     IErMin= 4 ErrMin= 1.94D-07
 ErrMax= 1.94D-07  0.00D+00 EMaxC= 1.00D+00 BMatC= 1.19D-12 BMatP= 3.57D-11
 IDIUse=1 WtCom= 1.00D+00 WtEn= 0.00D+00
 Coeff-Com: -0.713D-02 0.132D+00 0.213D+00 0.662D+00
 Coeff:     -0.713D-02 0.132D+00 0.213D+00 0.662D+00
 Gap=     0.244 Goal=   None    Shift=    0.000
 RMSDP=1.33D-08 MaxDP=1.44D-07 DE=-2.86D-11 OVMax= 2.66D-07

 Cycle  11  Pass 1  IDiag  1:
 E= -111.897630200306     Delta-E=       -0.000000000001 Rises=F Damp=F
 DIIS: error= 1.34D-08 at cycle   5 NSaved=   5.
 NSaved= 5 IEnMin= 5 EnMin= -111.897630200306     IErMin= 5 ErrMin= 1.34D-08
 ErrMax= 1.34D-08  0.00D+00 EMaxC= 1.00D+00 BMatC= 1.15D-14 BMatP= 1.19D-12
 IDIUse=1 WtCom= 1.00D+00 WtEn= 0.00D+00
 Coeff-Com: -0.193D-03-0.718D-02 0.367D-02 0.806D-01 0.923D+00
 Coeff:     -0.193D-03-0.718D-02 0.367D-02 0.806D-01 0.923D+00
 Gap=     0.244 Goal=   None    Shift=    0.000
 RMSDP=5.75D-09 MaxDP=6.84D-08 DE=-1.17D-12 OVMax= 1.68D-07

 SCF Done:  E(RB3LYP) =  -111.897630200     A.U. after   11 cycles
            NFock= 11  Conv=0.57D-08     -V/T= 2.0030
 KE= 1.115626746976D+02 PE=-3.439056652857D+02 EE= 7.948603614178D+01
 Leave Link  502 at Sat Feb 16 13:50:05 2019, MaxMem=   196608000 cpu:        47.3
 (Enter /cm/shared/c3ddb/gaussian/09.d01/g09/l508.exe)
 QCSCF skips out because SCF is already converged.
 Leave Link  508 at Sat Feb 16 13:50:05 2019, MaxMem=   196608000 cpu:         0.0
 (Enter /cm/shared/c3ddb/gaussian/09.d01/g09/l701.exe)
 Compute integral first derivatives.
 ... and contract with generalized density number  0.
 Leave Link  701 at Sat Feb 16 13:50:06 2019, MaxMem=   196608000 cpu:         4.9
 (Enter /cm/shared/c3ddb/gaussian/09.d01/g09/l702.exe)
 L702 exits ... SP integral derivatives will be done elsewhere.
[...]
 NSaved= 1 IEnMin= 1 EnMin= -111.207355577013     IErMin= 1 ErrMin= 1.68D-02
 ErrMax= 1.68D-02  0.00D+00 EMaxC= 1.00D-01 BMatC= 1.92D-02 BMatP= 1.92D-02
 IDIUse=3 WtCom= 8.32D-01 WtEn= 1.68D-01
 Coeff-Com:  0.100D+01
 Coeff-En:   0.100D+01
 Coeff:      0.100D+01
 Gap=     0.603 Goal=   None    Shift=    0.000
 GapD=    0.603 DampG=2.000 DampE=0.500 DampFc=1.0000 IDamp=-1.
 RMSDP=2.62D-03 MaxDP=7.47D-02              OVMax= 1.41D-02

 Cycle   2  Pass 1  IDiag  1:
 E= -111.215478205791     Delta-E=       -0.008122628779 Rises=F Damp=F
 DIIS: error= 1.41D-03 at cycle   2 NSaved=   2.
 NSaved= 2 IEnMin= 2 EnMin= -111.215478205791     IErMin= 2 ErrMin= 1.41D-03
 ErrMax= 1.41D-03  0.00D+00 EMaxC= 1.00D-01 BMatC= 1.60D-04 BMatP= 1.92D-02
 IDIUse=3 WtCom= 9.86D-01 WtEn= 1.41D-02
 Coeff-Com: -0.709D-01 0.107D+01
 Coeff-En:   0.000D+00 0.100D+01
 Coeff:     -0.699D-01 0.107D+01
 Gap=     0.413 Goal=   None    Shift=    0.000
 RMSDP=4.04D-04 MaxDP=8.43D-03 DE=-8.12D-03 OVMax= 3.26D-03

 Cycle   3  Pass 1  IDiag  1:
 E= -111.215598538670     Delta-E=       -0.000120332879 Rises=F Damp=F
 DIIS: error= 4.10D-04 at cycle   3 NSaved=   3.
 NSaved= 3 IEnMin= 3 EnMin= -111.215598538670     IErMin= 3 ErrMin= 4.10D-04
 ErrMax= 4.10D-04  0.00D+00 EMaxC= 1.00D-01 BMatC= 9.58D-06 BMatP= 1.60D-04
 IDIUse=3 WtCom= 9.96D-01 WtEn= 4.10D-03
 Coeff-Com: -0.166D-01 0.181D+00 0.836D+00
 Coeff-En:   0.000D+00 0.000D+00 0.100D+01
 Coeff:     -0.166D-01 0.180D+00 0.836D+00
 Gap=     0.415 Goal=   None    Shift=    0.000
 RMSDP=5.87D-05 MaxDP=9.09D-04 DE=-1.20D-04 OVMax= 8.96D-04

 Cycle   4  Pass 1  IDiag  1:
 E= -111.215606543737     Delta-E=       -0.000008005067 Rises=F Damp=F
 DIIS: error= 9.83D-05 at cycle   4 NSaved=   4.
 NSaved= 4 IEnMin= 4 EnMin= -111.215606543737     IErMin= 4 ErrMin= 9.83D-05
 ErrMax= 9.83D-05  0.00D+00 EMaxC= 1.00D-01 BMatC= 8.22D-07 BMatP= 9.58D-06
 IDIUse=1 WtCom= 1.00D+00 WtEn= 0.00D+00
 Coeff-Com:  0.377D-02-0.635D-01 0.129D+00 0.931D+00
 Coeff:      0.377D-02-0.635D-01 0.129D+00 0.931D+00
 Gap=     0.415 Goal=   None    Shift=    0.000
 RMSDP=3.04D-05 MaxDP=4.09D-04 DE=-8.01D-06 OVMax= 3.47D-04

 Cycle   5  Pass 1  IDiag  1:
 E= -111.215607514472     Delta-E=       -0.000000970735 Rises=F Damp=F
 DIIS: error= 2.09D-05 at cycle   5 NSaved=   5.
 NSaved= 5 IEnMin= 5 EnMin= -111.215607514472     IErMin= 5 ErrMin= 2.09D-05
 ErrMax= 2.09D-05  0.00D+00 EMaxC= 1.00D-01 BMatC= 1.96D-08 BMatP= 8.22D-07
 IDIUse=1 WtCom= 1.00D+00 WtEn= 0.00D+00
 Coeff-Com: -0.104D-03 0.349D-02-0.459D-01-0.128D+00 0.117D+01
 Coeff:     -0.104D-03 0.349D-02-0.459D-01-0.128D+00 0.117D+01
 Gap=     0.415 Goal=   None    Shift=    0.000
 RMSDP=1.07D-05 MaxDP=1.60D-04 DE=-9.71D-07 OVMax= 1.20D-04

 Cycle   6  Pass 1  IDiag  1:
 E= -111.215607568261     Delta-E=       -0.000000053789 Rises=F Damp=F
 DIIS: error= 5.22D-06 at cycle   6 NSaved=   6.
 NSaved= 6 IEnMin= 6 EnMin= -111.215607568261     IErMin= 6 ErrMin= 5.22D-06
 ErrMax= 5.22D-06  0.00D+00 EMaxC= 1.00D-01 BMatC= 1.33D-09 BMatP= 1.96D-08
 IDIUse=1 WtCom= 1.00D+00 WtEn= 0.00D+00
 Coeff-Com: -0.101D-03 0.162D-02 0.230D-02-0.234D-01-0.196D+00 0.122D+01
 Coeff:     -0.101D-03 0.162D-02 0.230D-02-0.234D-01-0.196D+00 0.122D+01
 Gap=     0.415 Goal=   None    Shift=    0.000
 RMSDP=2.43D-06 MaxDP=3.98D-05 DE=-5.38D-08 OVMax= 3.98D-05

 Cycle   7  Pass 1  IDiag  1:
 E= -111.215607572623     Delta-E=       -0.000000004361 Rises=F Damp=F
 DIIS: error= 1.19D-06 at cycle   7 NSaved=   7.
 NSaved= 7 IEnMin= 7 EnMin= -111.215607572623     IErMin= 7 ErrMin= 1.19D-06
 ErrMax= 1.19D-06  0.00D+00 EMaxC= 1.00D-01 BMatC= 1.03D-10 BMatP= 1.33D-09
 IDIUse=1 WtCom= 1.00D+00 WtEn= 0.00D+00
 Coeff-Com:  0.491D-04-0.996D-03 0.426D-02 0.187D-01-0.383D-01-0.310D+00
 Coeff-Com:  0.133D+01
 Coeff:      0.491D-04-0.996D-03 0.426D-02 0.187D-01-0.383D-01-0.310D+00
 Coeff:      0.133D+01
 Gap=     0.415 Goal=   None    Shift=    0.000
 RMSDP=2.52D-07 MaxDP=5.49D-06 DE=-4.36D-09 OVMax= 1.37D-05

 Cycle   8  Pass 1  IDiag  1:
 E= -111.215607572964     Delta-E=       -0.000000000342 Rises=F Damp=F
 DIIS: error= 3.07D-07 at cycle   8 NSaved=   8.
 NSaved= 8 IEnMin= 8 EnMin= -111.215607572964     IErMin= 8 ErrMin= 3.07D-07
 ErrMax= 3.07D-07  0.00D+00 EMaxC= 1.00D-01 BMatC= 3.61D-12 BMatP= 1.03D-10
 IDIUse=1 WtCom= 1.00D+00 WtEn= 0.00D+00
 Coeff-Com: -0.569D-05 0.140D-03-0.108D-02-0.334D-02 0.142D-01 0.420D-01
 Coeff-Com: -0.385D+00 0.133D+01
 Coeff:     -0.569D-05 0.140D-03-0.108D-02-0.334D-02 0.142D-01 0.420D-01
 Coeff:     -0.385D+00 0.133D+01
 Gap=     0.415 Goal=   None    Shift=    0.000
 RMSDP=9.61D-08 MaxDP=2.03D-06 DE=-3.42D-10 OVMax= 3.79D-06

 Cycle   9  Pass 1  IDiag  1:
 E= -111.215607572980     Delta-E=       -0.000000000015 Rises=F Damp=F
 DIIS: error= 6.98D-08 at cycle   9 NSaved=   9.
 NSaved= 9 IEnMin= 9 EnMin= -111.215607572980     IErMin= 9 ErrMin= 6.98D-08
 ErrMax= 6.98D-08  0.00D+00 EMaxC= 1.00D-01 BMatC= 1.86D-13 BMatP= 3.61D-12
 IDIUse=1 WtCom= 1.00D+00 WtEn= 0.00D+00
 Coeff-Com: -0.118D-06-0.527D-05 0.175D-03 0.273D-03-0.334D-02 0.528D-02
 Coeff-Com:  0.479D-01-0.369D+00 0.132D+01
 Coeff:     -0.118D-06-0.527D-05 0.175D-03 0.273D-03-0.334D-02 0.528D-02
 Coeff:      0.479D-01-0.369D+00 0.132D+01
 Gap=     0.415 Goal=   None    Shift=    0.000
 RMSDP=2.05D-08 MaxDP=4.76D-07 DE=-1.55D-11 OVMax= 8.56D-07

 Cycle  10  Pass 1  IDiag  1:
 E= -111.215607572980     Delta-E=        0.000000000000 Rises=F Damp=F
 DIIS: error= 1.99D-08 at cycle  10 NSaved=  10.
 NSaved=10 IEnMin=10 EnMin= -111.215607572980     IErMin=10 ErrMin= 1.99D-08
 ErrMax= 1.99D-08  0.00D+00 EMaxC= 1.00D-01 BMatC= 1.53D-14 BMatP= 1.86D-13
 IDIUse=1 WtCom= 1.00D+00 WtEn= 0.00D+00
 Coeff-Com:  0.483D-06-0.898D-05 0.261D-04 0.134D-03-0.128D-03-0.351D-02
 Coeff-Com:  0.640D-02 0.309D-01-0.443D+00 0.141D+01
 Coeff:      0.483D-06-0.898D-05 0.261D-04 0.134D-03-0.128D-03-0.351D-02
 Coeff:      0.640D-02 0.309D-01-0.443D+00 0.141D+01
 Gap=     0.415 Goal=   None    Shift=    0.000
 RMSDP=5.46D-09 MaxDP=8.99D-08 DE=-3.98D-13 OVMax= 2.99D-07

 SCF Done:  E(RHF) =  -111.215607573     A.U. after   10 cycles
            NFock= 10  Conv=0.55D-08     -V/T= 2.0016
 KE= 1.110376258235D+02 PE=-3.429406032173D+02 EE= 7.977556489360D+01
 Leave Link  502 at Sat Feb 16 13:58:41 2019, MaxMem=   196608000 cpu:        75.3
 (Enter /cm/shared/c3ddb/gaussian/09.d01/g09/l508.exe)
 QCSCF skips out because SCF is already converged.
 Leave Link  508 at Sat Feb 16 13:58:41 2019, MaxMem=   196608000 cpu:         0.0
 (Enter /cm/shared/c3ddb/gaussian/09.d01/g09/l801.exe)
 ExpMin= 3.60D-02 ExpMax= 6.29D+03 ExpMxC= 9.49D+02 IAcc=3 IRadAn=         5 AccDes= 0.00D+00
 HarFok:  IExCor=  205 AccDes= 0.00D+00 IRadAn=         5 IDoV=-2 UseB2=F ITyADJ=14
 ICtDFT= 12500011 ScaDFX=  1.000000  1.000000  1.000000  1.000000
 Largest valence mixing into a core orbital is  1.30D-04
 Largest core mixing into a valence orbital is  3.19D-05
 Range of M.O.s used for correlation:     3   108
 NBasis=   108 NAE=     9 NBE=     9 NFC=     2 NFV=     0
 NROrb=    106 NOA=     7 NOB=     7 NVA=    99 NVB=    99

 **** Warning!!: The largest alpha MO coefficient is  0.28470150D+02

 Leave Link  801 at Sat Feb 16 13:58:41 2019, MaxMem=   196608000 cpu:         3.0
 (Enter /cm/shared/c3ddb/gaussian/09.d01/g09/l906.exe)
 FulOut=F Deriv=F AODrv=F NAtomX=     6
   MMem=           0  MDisk=           7 MDiskD=           7
  W3Min=       81774 MinDsk=      237020 NBas6D=         118
 NBas2D=        7243    NTT=        7021    LW2=     2000000
    MDV=   196526315 MDiskM=        8242 NBas2p=        3762
 Disk-based method using OVN memory for  7 occupieds at a time.
 Permanent disk used for amplitudes and <ij||ab> integrals=     1164240 words.
 Estimated scratch disk usage=     8861658 words.
 IMap=   1   2   3   4   5   6   7
 Actual    scratch disk usage=     7298010 words.
 JobTyp=1 Pass  1:  I=   1 to   7 NPSUse=  8 ParTrn=T ParDer=T DoDerP=F.
 (rs|ai) integrals will be sorted in core.
 Spin components of T(2) and E(2):
     alpha-alpha T2 =       0.1530818844D-01 E2=     -0.5118061362D-01
     alpha-beta  T2 =       0.9387928185D-01 E2=     -0.3330203924D+00
     beta-beta   T2 =       0.1530818844D-01 E2=     -0.5118061362D-01
 The integrals were generated   1 times.
 ANorm=    0.1060422396D+01
 E2 =    -0.4353816197D+00 EUMP2 =    -0.11165098919266D+03
 Leave Link  906 at Sat Feb 16 13:59:02 2019, MaxMem=   196608000 cpu:       120.1
 (Enter /cm/shared/c3ddb/gaussian/09.d01/g09/l904.exe)

 Complete Basis Set (CBS) Extrapolation:
 M. R. Nyden and G. A. Petersson, JCP 75, 1843 (1981)
 G. A. Petersson and M. A. Al-Laham, JCP 94, 6081 (1991)
 G. A. Petersson, T. Tensfeldt, and J. A. Montgomery, JCP 94, 6091 (1991)
 J. A. Montgomery, J. W. Ochterski, and G. A. Petersson, JCP 101, 5900 (1994)
 
 Available Memory in CBS =  196608000
 Minimum Number of PNO for Extrapolation =  10
 Absolute Overlaps: IRadAn =     99590
 LocTrn: ILocal=3 LocCor=F DoCore=F.
 LocMO: Using population method
 Initial Trace= 0.70000000D+01 Initial TraceA= 0.23401385D+01
 RMSG= 0.36996482D-09
 There are a total of      302080 grid points.
 ElSum from         orbitals=        9.0000000052
 E2(CBS)=      -0.478254 CBS-Int=       0.014353 OIii=       3.807490
 Leave Link  904 at Sat Feb 16 13:59:05 2019, MaxMem=   196608000 cpu:        16.4
 (Enter /cm/shared/c3ddb/gaussian/09.d01/g09/l601.exe)
 Copying SCF densities to generalized density rwf, IOpCl= 0 IROHF=0.

 **********************************************************************

            Population analysis using the SCF density.

 **********************************************************************

 Orbital symmetries:
       Occupied  (A) (B) (A) (B) (A) (A) (B) (B) (A)
       Virtual   (A) (B) (A) (B) (B) (A) (B) (A) (B) (A) (A) (B)
                 (A) (B) (A) (B) (B) (A) (B) (A) (B) (A) (B) (A)
                 (B) (B) (A) (A) (B) (B) (B) (A) (A) (A) (B) (A)
                 (B) (B) (A) (A) (A) (B) (B) (A) (B) (A) (B) (B)
                 (A) (B) (A) (B) (A) (B) (A) (A) (A) (B) (A) (B)
                 (B) (A) (B) (B) (A) (A) (B) (A) (A) (B) (B) (A)
                 (B) (A) (B) (A) (B) (A) (B) (A) (B) (A) (B) (A)
                 (A) (B) (B) (B) (A) (A) (B) (B) (A) (A) (B) (A)
                 (B) (B) (A)
 The electronic state is 1-A.
 Alpha  occ. eigenvalues --  -15.57443 -15.57405  -1.24722  -1.01802  -0.69621
 Alpha  occ. eigenvalues --   -0.58721  -0.56701  -0.54470  -0.36707
 Alpha virt. eigenvalues --    0.04796   0.06043   0.06634   0.09784   0.15788
 Alpha virt. eigenvalues --    0.19007   0.20502   0.21949   0.22698   0.25458
 Alpha virt. eigenvalues --    0.25752   0.30538   0.31043   0.31935   0.33169
 Alpha virt. eigenvalues --    0.36289   0.42336   0.64052   0.64914   0.72674
 Alpha virt. eigenvalues --    0.77743   0.79879   0.80831   0.80978   0.84732
 Alpha virt. eigenvalues --    0.86258   0.88873   0.90397   0.94910   1.06467
 Alpha virt. eigenvalues --    1.08159   1.09765   1.13606   1.16456   1.22315
 Alpha virt. eigenvalues --    1.40312   1.44931   1.47779   1.56254   1.60400
 Alpha virt. eigenvalues --    1.61777   1.64184   1.74830   1.79850   1.89680
 Alpha virt. eigenvalues --    1.92307   1.92799   2.12431   2.13817   2.16893
 Alpha virt. eigenvalues --    2.17965   2.73855   2.93698   2.97702   3.07978
 Alpha virt. eigenvalues --    3.59222   3.63883   3.67994   3.71961   3.77177
 Alpha virt. eigenvalues --    3.78955   3.85412   3.86731   4.03482   4.03760
 Alpha virt. eigenvalues --    4.08020   4.08596   4.14999   4.15226   4.32259
 Alpha virt. eigenvalues --    4.40159   4.41332   4.73582   4.83290   4.84880
 Alpha virt. eigenvalues --    4.92947   4.93900   4.95906   5.12640   5.21140
 Alpha virt. eigenvalues --    5.25240   5.32716   5.48299   5.49106   5.57638
 Alpha virt. eigenvalues --    5.59905   5.69474   5.71445   5.77953   5.94410
 Alpha virt. eigenvalues --    5.94623   5.97015   6.05488   6.66972   6.82984
 Alpha virt. eigenvalues --    6.94136   6.95584  37.01261  37.10267
          Condensed to atoms (all electrons):
               1          2          3          4          5          6
     1  N    6.450851   0.181886   0.377107   0.377151  -0.044451  -0.044564
     2  N    0.181886   6.450851  -0.044564  -0.044451   0.377151   0.377107
     3  H    0.377107  -0.044564   0.544934  -0.028926   0.006866  -0.004451
     4  H    0.377151  -0.044451  -0.028926   0.544952  -0.004538   0.006866
     5  H   -0.044451   0.377151   0.006866  -0.004538   0.544952  -0.028926
     6  H   -0.044564   0.377107  -0.004451   0.006866  -0.028926   0.544934
 Mulliken charges:
               1
     1  N   -0.297980
     2  N   -0.297980
     3  H    0.149034
     4  H    0.148946
     5  H    0.148946
     6  H    0.149034
 Sum of Mulliken charges =   0.00000
 Mulliken charges with hydrogens summed into heavy atoms:
               1
     1  N    0.000000
     2  N    0.000000
 Electronic spatial extent (au):  <R**2>=             84.5754
 Charge=              0.0000 electrons
 Dipole moment (field-independent basis, Debye):
    X=              0.0000    Y=              0.0000    Z=             -0.0036  Tot=              0.0036
 Quadrupole moment (field-independent basis, Debye-Ang):
   XX=            -13.9806   YY=            -14.4507   ZZ=            -10.6358
   XY=              4.4905   XZ=              0.0000   YZ=              0.0000
 Traceless Quadrupole moment (field-independent basis, Debye-Ang):
   XX=             -0.9582   YY=             -1.4283   ZZ=              2.3866
   XY=              4.4905   XZ=              0.0000   YZ=              0.0000
 Octapole moment (field-independent basis, Debye-Ang**2):
  XXX=              0.0000  YYY=              0.0000  ZZZ=             -0.0080  XYY=              0.0000
  XXY=              0.0000  XXZ=              0.0033  XZZ=              0.0000  YZZ=              0.0000
  YYZ=             -0.0064  XYZ=              0.0039
 Hexadecapole moment (field-independent basis, Debye-Ang**3):
 XXXX=            -20.2789 YYYY=            -68.7274 ZZZZ=            -17.5540 XXXY=             -0.9706
 XXXZ=              0.0000 YYYX=              3.2365 YYYZ=              0.0000 ZZZX=              0.0000
 ZZZY=              0.0000 XXYY=            -14.9159 XXZZ=             -5.2539 YYZZ=            -11.8663
 XXYZ=              0.0000 YYXZ=              0.0000 ZZXY=              1.7194
 N-N= 4.091180492720D+01 E-N=-3.429406031297D+02  KE= 1.110376258235D+02
 Symmetry A    KE= 5.708990458456D+01
 Symmetry B    KE= 5.394772123897D+01
 Leave Link  601 at Sat Feb 16 13:59:06 2019, MaxMem=   196608000 cpu:         8.9
 (Enter /cm/shared/c3ddb/gaussian/09.d01/g09/l9999.exe)
 1\1\GINC-NODE028\SP\RMP2-FC\CBSB3\H4N2\DUMINDA\16-Feb-2019\0\\#P Geom=
 AllCheck Guess=TCheck SCRF=Check MP2/CBSB3 CBSExtrap=(NMin=10,MinPop)\
 \name\\0,1\N,0,-0.6484072517,0.000244244,-0.3637576109\N,0,0.648407973
 5,-0.0010627733,0.363755324\H,0,-1.1484337649,-0.7960111229,0.03021603
 88\H,0,-1.1489210505,0.7944294911,0.033756058\H,0,1.1476835908,0.79641
 48436,-0.0286917361\H,0,1.149670758,-0.7940149096,-0.0352771186\\Versi
 on=AS64L-G09RevD.01\State=1-A\HF=-111.2156076\MP2=-111.6509892\E2(CBS)
 =-0.4782543\CBS-Int=-0.4639011\OIii=3.8074898\RMSD=5.457e-09\PG=C02 [X
 (H4N2)]\\@


 WE SHOULD BE CAREFUL TO GET OUT OF AN EXPERIENCE ONLY THE WISDOM
 THAT IS IN IT -- AND STOP THERE;
 LEST WE BE LIKE THE CAT THAT SITS DOWN ON A HOT STOVE-LID.
 SHE WILL NEVER SIT DOWN ON A HOT STOVE LID AGAIN;
 BUT ALSO SHE WILL NEVER SIT DOWN ON A COLD ONE ANY MORE.

                                                     -- MARK TWAIN
 Diagonal vibrational polarizability:
        0.0000000       0.0000000       0.0000000

 Complete Basis Set (CBS) Extrapolation:
 M. R. Nyden and G. A. Petersson, JCP 75, 1843 (1981)
 G. A. Petersson and M. A. Al-Laham, JCP 94, 6081 (1991)
 G. A. Petersson, T. Tensfeldt, and J. A. Montgomery, JCP 94, 6091 (1991)
 J. A. Montgomery, J. W. Ochterski, and G. A. Petersson, JCP 101, 5900 (1994)

 Temperature=               298.150000 Pressure=                       1.000000
 E(ZPE)=                      0.052167 E(Thermal)=                     0.055904
 E(SCF)=                   -111.215608 DE(MP2)=                       -0.435382
 DE(CBS)=                    -0.042873 DE(MP34)=                      -0.022338
 DE(CCSD)=                   -0.009428 DE(Int)=                        0.014353
 DE(Empirical)=              -0.022045
 CBS-QB3 (0 K)=            -111.681154 CBS-QB3 Energy=              -111.677416
 CBS-QB3 Enthalpy=         -111.676472 CBS-QB3 Free Energy=         -111.704116
 1\1\GINC-NODE028\Mixed\CBS-QB3\CBS-QB3\H4N2\DUMINDA\16-Feb-2019\0\\#P 
 opt=(noeigentest, calcfc) cbs-qb3 scf=xqc\\name\\0,1\N,0,-0.6484072517
 ,0.000244244,-0.3637576109\N,0,0.6484079735,-0.0010627733,0.363755324\
 H,0,-1.1484337649,-0.7960111229,0.0302160388\H,0,-1.1489210505,0.79442
 94911,0.033756058\H,0,1.1476835908,0.7964148436,-0.0286917361\H,0,1.14
 9670758,-0.7940149096,-0.0352771186\\Version=AS64L-G09RevD.01\State=1-
 A\HF/CbsB3=-111.2156076\E2(CBS)/CbsB3=-0.4782543\CBS-Int/CbsB3=0.01435
 33\OIii/CbsB3=3.8074898\MP2/CbsB4=-111.5481542\MP4(SDQ)/CbsB4=-111.570
 4922\MP4(SDQ)/6-31+G(d')=-111.5284977\QCISD(T)/6-31+G(d')=-111.5379257
 \CBSQB3=-111.6811535\FreqCoord=-1.2253121283,0.0004615543,-0.687402263
 3,1.2253134923,-0.0020083504,0.6873979417,-2.1702252974,-1.5042430209,
 0.0571000382,-2.1711461337,1.5012541701,0.063789705,2.1688076739,1.505
 0059425,-0.0542195236,2.1725628757,-1.5004707245,-0.066664093\PG=C02 [
 X(H4N2)]\NImag=0\\0.45991754,0.00009276,0.63254702,-0.07257576,0.00087
 489,0.25046188,-0.15727736,0.00023801,-0.06613781,0.45991753,0.0000953
 2,-0.10088401,-0.00011804,0.00010070,0.63254340,-0.06613827,-0.0001169
 9,-0.08012985,-0.07257617,0.00144471,0.25046551,-0.12687751,-0.1257902
 2,0.05850657,-0.02433888,-0.03167593,0.01045315,0.15082059,-0.12546214
 ,-0.26963643,0.10059658,0.00397675,0.00319718,0.00183544,0.13803683,0.
 29467908,0.08555827,0.15736054,-0.08985296,-0.01651085,-0.02099892,0.0
 0521396,-0.06074293,-0.11823881,0.08471093,-0.12706247,0.12562276,0.05
 910227,-0.02436138,0.03161928,0.01065193,0.01017354,-0.01842636,-0.005
 87460,0.15100290,0.12519685,-0.26833940,-0.10136222,-0.00392910,0.0031
 1583,-0.00183794,0.01847992,-0.03052896,-0.01726070,-0.13786621,0.2934
 6843,0.08621252,-0.15809468,-0.09096299,-0.01654598,0.02094470,0.00526
 983,-0.00580456,0.01711716,0.00146118,-0.06144167,0.11914016,0.0857314
 2,-0.02431827,-0.03172923,0.01044742,-0.12667186,-0.12577429,0.0581451
 2,-0.00843887,0.00141566,-0.00418848,-0.00131813,-0.00046943,0.0017586
 2,0.15057365,0.00399147,0.00319447,0.00184128,-0.12552070,-0.27037529,
 0.10031244,0.00142217,0.00212980,-0.00108575,0.00045591,0.00017266,-0.
 00021455,0.13803050,0.29540681,-0.01648815,-0.02098347,0.00514808,0.08
 516924,0.15708701,-0.08931771,-0.00416820,-0.00108477,-0.00243057,0.00
 176124,0.00021255,0.00091717,-0.06037903,-0.11790140,0.08422229,-0.024
 38194,0.03156591,0.01065731,-0.12726804,0.12563492,0.05946424,-0.00133
 887,0.00045925,0.00175859,-0.00843447,-0.00141203,-0.00417893,0.010173
 47,-0.01837935,-0.00589510,0.15124985,-0.00391427,0.00311835,-0.001832
 50,0.12513434,-0.26759712,-0.10163766,-0.00047277,0.00015933,0.0002236
 4,-0.00140539,0.00211144,0.00110720,0.01852679,-0.03052845,-0.01732993
 ,-0.13786871,0.29273644,-0.01656861,0.02095971,0.00533585,0.08660158,-
 0.15835946,-0.09150175,0.00175598,-0.00022561,0.00089745,-0.00419917,0
 .00110816,-0.00241661,-0.00578366,0.01704797,0.00146074,-0.06180612,0.
 11946923,0.08622430\\-0.00000291,-0.00000028,0.00002175,0.00000291,-0.
 00000014,-0.00002176,-0.00000300,0.00000173,-0.00000946,-0.00000259,-0
 .00000145,-0.00001035,0.00000259,-0.00000152,0.00001034,0.00000300,0.0
 0000167,0.00000947\\\@
 Job cpu time:       0 days  0 hours  4 minutes  6.4 seconds.
 File lengths (MBytes):  RWF=     73 Int=      0 D2E=      0 Chk=      2 Scr=      1
 Normal termination of Gaussian 09 at Sat Feb 16 13:59:07 2019.
