 Entering Gaussian System, Link 0=g09
 Initial command:
 /cm/shared/c3ddb/gaussian/09.d01/g09/l1.exe "/scratch/users/duminda/g09/a1681-7322571/Gau-64607.inp" -scrdir="/scratch/users/duminda/g09/a1681-7322571/"
 Entering Link 1 = /cm/shared/c3ddb/gaussian/09.d01/g09/l1.exe PID=     64608.
  
 Copyright (c) 1988,1990,1992,1993,1995,1998,2003,2009,2013,
            Gaussian, Inc.  All Rights Reserved.
  
 This is part of the Gaussian(R) 09 program.  It is based on
 the Gaussian(R) 03 system (copyright 2003, Gaussian, Inc.),
 the Gaussian(R) 98 system (copyright 1998, Gaussian, Inc.),
 the Gaussian(R) 94 system (copyright 1995, Gaussian, Inc.),
 the Gaussian 92(TM) system (copyright 1992, Gaussian, Inc.),
 the Gaussian 90(TM) system (copyright 1990, Gaussian, Inc.),
 the Gaussian 88(TM) system (copyright 1988, Gaussian, Inc.),
 the Gaussian 86(TM) system (copyright 1986, Carnegie Mellon
 University), and the Gaussian 82(TM) system (copyright 1983,
 Carnegie Mellon University). Gaussian is a federally registered
 trademark of Gaussian, Inc.
  
 This software contains proprietary and confidential information,
 including trade secrets, belonging to Gaussian, Inc.
  
 This software is provided under written license and may be
 used, copied, transmitted, or stored only in accord with that
 written license.
  
 The following legend is applicable only to US Government
 contracts under FAR:
  
                    RESTRICTED RIGHTS LEGEND
  
 Use, reproduction and disclosure by the US Government is
 subject to restrictions as set forth in subparagraphs (a)
 and (c) of the Commercial Computer Software - Restricted
 Rights clause in FAR 52.227-19.
  
 Gaussian, Inc.
 340 Quinnipiac St., Bldg. 40, Wallingford CT 06492
  
  
 ---------------------------------------------------------------
 Warning -- This program may not be used in any manner that
 competes with the business of Gaussian, Inc. or will provide
 assistance to any competitor of Gaussian, Inc.  The licensee
 of this program is prohibited from giving any competitor of
 Gaussian, Inc. access to this program.  By using this program,
 the user acknowledges that Gaussian, Inc. is engaged in the
 business of creating and licensing software in the field of
 computational chemistry and represents and warrants to the
 licensee that it is not a competitor of Gaussian, Inc. and that
 it will not use this program in any manner prohibited above.
 ---------------------------------------------------------------
  

 Cite this work as:
 Gaussian 09, Revision D.01,
 M. J. Frisch, G. W. Trucks, H. B. Schlegel, G. E. Scuseria, 
 M. A. Robb, J. R. Cheeseman, G. Scalmani, V. Barone, B. Mennucci, 
 G. A. Petersson, H. Nakatsuji, M. Caricato, X. Li, H. P. Hratchian, 
 A. F. Izmaylov, J. Bloino, G. Zheng, J. L. Sonnenberg, M. Hada, 
 M. Ehara, K. Toyota, R. Fukuda, J. Hasegawa, M. Ishida, T. Nakajima, 
 Y. Honda, O. Kitao, H. Nakai, T. Vreven, J. A. Montgomery, Jr., 
 J. E. Peralta, F. Ogliaro, M. Bearpark, J. J. Heyd, E. Brothers, 
 K. N. Kudin, V. N. Staroverov, T. Keith, R. Kobayashi, J. Normand, 
 K. Raghavachari, A. Rendell, J. C. Burant, S. S. Iyengar, J. Tomasi, 
 M. Cossi, N. Rega, J. M. Millam, M. Klene, J. E. Knox, J. B. Cross, 
 V. Bakken, C. Adamo, J. Jaramillo, R. Gomperts, R. E. Stratmann, 
 O. Yazyev, A. J. Austin, R. Cammi, C. Pomelli, J. W. Ochterski, 
 R. L. Martin, K. Morokuma, V. G. Zakrzewski, G. A. Voth, 
 P. Salvador, J. J. Dannenberg, S. Dapprich, A. D. Daniels, 
 O. Farkas, J. B. Foresman, J. V. Ortiz, J. Cioslowski, 
 and D. J. Fox, Gaussian, Inc., Wallingford CT, 2013.
 
 ******************************************
 Gaussian 09:  AS64L-G09RevD.01 24-Apr-2013
                16-Feb-2019 
 ******************************************
 %chk=check.chk
 %mem=1500mb
 %nproc=8
 Will use up to    8 processors via shared memory.
 --------------------------------
 #P opt=calcfc b97d/6-31g scf=xqc
 --------------------------------
 1/10=4,14=-1,18=20,19=15,26=3,38=1/1,3;
 2/9=110,12=2,17=6,18=5,40=1/2;
 3/5=1,6=6,11=2,16=1,25=1,30=1,71=2,74=-42,140=1/1,2,3;
 4//1;
 5/5=2,8=3,13=1,38=5/2,8;
 8/6=4,10=90,11=11/1;
 11/6=1,8=1,9=11,15=111,16=1/1,2,10;
 10/6=1,13=1/2;
 6/7=2,8=2,9=2,10=2,28=1/1;
 7/10=1,18=20,25=1/1,2,3,16;
 1/10=4,14=-1,18=20,19=15,26=3/3(2);
 2/9=110/2;
 99//99;
 2/9=110/2;
 3/5=1,6=6,11=2,16=1,25=1,30=1,71=1,74=-42/1,2,3;
 4/5=5,16=3,69=1/1;
 5/5=2,8=3,13=1,38=5/2,8;
 7//1,2,3,16;
 1/14=-1,18=20,19=15,26=3/3(-5);
 2/9=110/2;
 6/7=2,8=2,9=2,10=2,19=2,28=1/1;
 99/9=1/99;
 Leave Link    1 at Sat Feb 16 13:47:08 2019, MaxMem=   196608000 cpu:         0.7
 (Enter /cm/shared/c3ddb/gaussian/09.d01/g09/l101.exe)
 ----
 name
 ----
 Symbolic Z-matrix:
 Charge =  0 Multiplicity = 1
 C                    -1.09877   0.12154  -0.26091 
 C                     0.15097  -0.25451   0.46511 
 C                     1.38594   0.01527   0.02481 
 H                    -0.88998   0.6456   -1.19896 
 H                    -1.71194   0.77551   0.36656 
 H                    -1.67944  -0.77637  -0.49319 
 H                     0.02813  -0.78026   1.40945 
 H                     2.25771  -0.28429   0.59848 
 H                     1.55738   0.5375   -0.91135 
 
 NAtoms=      9 NQM=        9 NQMF=       0 NMMI=      0 NMMIF=      0
                NMic=       0 NMicF=      0.
                    Isotopes and Nuclear Properties:
 (Nuclear quadrupole moments (NQMom) in fm**2, nuclear magnetic moments (NMagM)
  in nuclear magnetons)

  Atom         1           2           3           4           5           6           7           8           9
 IAtWgt=          12          12          12           1           1           1           1           1           1
 AtmWgt=  12.0000000  12.0000000  12.0000000   1.0078250   1.0078250   1.0078250   1.0078250   1.0078250   1.0078250
 NucSpn=           0           0           0           1           1           1           1           1           1
 AtZEff=   0.0000000   0.0000000   0.0000000   0.0000000   0.0000000   0.0000000   0.0000000   0.0000000   0.0000000
 NQMom=    0.0000000   0.0000000   0.0000000   0.0000000   0.0000000   0.0000000   0.0000000   0.0000000   0.0000000
 NMagM=    0.0000000   0.0000000   0.0000000   2.7928460   2.7928460   2.7928460   2.7928460   2.7928460   2.7928460
 AtZNuc=   6.0000000   6.0000000   6.0000000   1.0000000   1.0000000   1.0000000   1.0000000   1.0000000   1.0000000
 Leave Link  101 at Sat Feb 16 13:47:08 2019, MaxMem=   196608000 cpu:         1.0
 (Enter /cm/shared/c3ddb/gaussian/09.d01/g09/l103.exe)

 GradGradGradGradGradGradGradGradGradGradGradGradGradGradGradGradGradGrad
 Berny optimization.
 Initialization pass.
                           ----------------------------
                           !    Initial Parameters    !
                           ! (Angstroms and Degrees)  !
 --------------------------                            --------------------------
 ! Name  Definition              Value          Derivative Info.                !
 --------------------------------------------------------------------------------
 ! R1    R(1,2)                  1.4934         calculate D2E/DX2 analytically  !
 ! R2    R(1,4)                  1.0946         calculate D2E/DX2 analytically  !
 ! R3    R(1,5)                  1.0942         calculate D2E/DX2 analytically  !
 ! R4    R(1,6)                  1.0942         calculate D2E/DX2 analytically  !
 ! R5    R(2,3)                  1.3386         calculate D2E/DX2 analytically  !
 ! R6    R(2,7)                  1.0878         calculate D2E/DX2 analytically  !
 ! R7    R(3,8)                  1.0857         calculate D2E/DX2 analytically  !
 ! R8    R(3,9)                  1.0856         calculate D2E/DX2 analytically  !
 ! A1    A(2,1,4)              112.1818         calculate D2E/DX2 analytically  !
 ! A2    A(2,1,5)              109.9156         calculate D2E/DX2 analytically  !
 ! A3    A(2,1,6)              109.9156         calculate D2E/DX2 analytically  !
 ! A4    A(4,1,5)              108.1901         calculate D2E/DX2 analytically  !
 ! A5    A(4,1,6)              108.1901         calculate D2E/DX2 analytically  !
 ! A6    A(5,1,6)              108.3469         calculate D2E/DX2 analytically  !
 ! A7    A(1,2,3)              124.1521         calculate D2E/DX2 analytically  !
 ! A8    A(1,2,7)              116.6951         calculate D2E/DX2 analytically  !
 ! A9    A(3,2,7)              119.1527         calculate D2E/DX2 analytically  !
 ! A10   A(2,3,8)              120.7559         calculate D2E/DX2 analytically  !
 ! A11   A(2,3,9)              121.7559         calculate D2E/DX2 analytically  !
 ! A12   A(8,3,9)              117.4882         calculate D2E/DX2 analytically  !
 ! D1    D(4,1,2,3)              0.0            calculate D2E/DX2 analytically  !
 ! D2    D(4,1,2,7)           -180.0            calculate D2E/DX2 analytically  !
 ! D3    D(5,1,2,3)           -120.4167         calculate D2E/DX2 analytically  !
 ! D4    D(5,1,2,7)             59.5834         calculate D2E/DX2 analytically  !
 ! D5    D(6,1,2,3)            120.4167         calculate D2E/DX2 analytically  !
 ! D6    D(6,1,2,7)            -59.5833         calculate D2E/DX2 analytically  !
 ! D7    D(1,2,3,8)            180.0            calculate D2E/DX2 analytically  !
 ! D8    D(1,2,3,9)              0.0            calculate D2E/DX2 analytically  !
 ! D9    D(7,2,3,8)              0.0            calculate D2E/DX2 analytically  !
 ! D10   D(7,2,3,9)            180.0            calculate D2E/DX2 analytically  !
 --------------------------------------------------------------------------------
 Trust Radius=3.00D-01 FncErr=1.00D-07 GrdErr=1.00D-06
 Number of steps in this run=     40 maximum allowed number of steps=    100.
 GradGradGradGradGradGradGradGradGradGradGradGradGradGradGradGradGradGrad

 Leave Link  103 at Sat Feb 16 13:47:08 2019, MaxMem=   196608000 cpu:         0.1
 (Enter /cm/shared/c3ddb/gaussian/09.d01/g09/l202.exe)
                          Input orientation:                          
 ---------------------------------------------------------------------
 Center     Atomic      Atomic             Coordinates (Angstroms)
 Number     Number       Type             X           Y           Z
 ---------------------------------------------------------------------
      1          6           0       -1.098767    0.121542   -0.260914
      2          6           0        0.150966   -0.254511    0.465106
      3          6           0        1.385938    0.015272    0.024813
      4          1           0       -0.889979    0.645598   -1.198963
      5          1           0       -1.711936    0.775511    0.366562
      6          1           0       -1.679443   -0.776367   -0.493188
      7          1           0        0.028134   -0.780255    1.409450
      8          1           0        2.257711   -0.284292    0.598484
      9          1           0        1.557377    0.537501   -0.911349
 ---------------------------------------------------------------------
                    Distance matrix (angstroms):
                    1          2          3          4          5
     1  C    0.000000
     2  C    1.493437   0.000000
     3  C    2.503336   1.338580   0.000000
     4  H    1.094606   2.159372   2.659838   0.000000
     5  H    1.094247   2.130976   3.208049   1.772952   0.000000
     6  H    1.094247   2.130976   3.208049   1.772951   1.774415
     7  H    2.207547   1.087787   2.096119   3.111239   2.556534
     8  H    3.488440   2.111173   1.085737   3.742120   4.115224
     9  H    2.766079   2.121298   1.085594   2.466569   3.518254
                    6          7          8          9
     6  H    0.000000
     7  H    2.556534   0.000000
     8  H    4.115223   2.423769   0.000000
     9  H    3.518254   3.075902   1.856181   0.000000
 Stoichiometry    C3H6
 Framework group  CS[SG(C3H4),X(H2)]
 Deg. of freedom    14
 Full point group                 CS      NOp   2
 Largest Abelian subgroup         CS      NOp   2
 Largest concise Abelian subgroup CS      NOp   2
                         Standard orientation:                         
 ---------------------------------------------------------------------
 Center     Atomic      Atomic             Coordinates (Angstroms)
 Number     Number       Type             X           Y           Z
 ---------------------------------------------------------------------
      1          6           0        0.000000    1.238059    0.000000
      2          6           0       -0.441730   -0.188555    0.000000
      3          6           0        0.394177   -1.234048    0.000000
      4          1           0        1.090478    1.333032    0.000000
      5          1           0       -0.387313    1.748185    0.887208
      6          1           0       -0.387313    1.748185   -0.887208
      7          1           0       -1.514627   -0.367919    0.000000
      8          1           0        0.012158   -2.250359    0.000000
      9          1           0        1.471936   -1.103862    0.000000
 ---------------------------------------------------------------------
 Rotational constants (GHZ):     46.0491535      9.3789780      8.1927912
 Leave Link  202 at Sat Feb 16 13:47:09 2019, MaxMem=   196608000 cpu:         0.3
 (Enter /cm/shared/c3ddb/gaussian/09.d01/g09/l301.exe)
 Standard basis: 6-31G (6D, 7F)
 Ernie: Thresh=  0.10000D-02 Tol=  0.10000D-05 Strict=F.
 There are    31 symmetry adapted cartesian basis functions of A'  symmetry.
 There are     8 symmetry adapted cartesian basis functions of A"  symmetry.
 There are    31 symmetry adapted basis functions of A'  symmetry.
 There are     8 symmetry adapted basis functions of A"  symmetry.
    39 basis functions,    90 primitive gaussians,    39 cartesian basis functions
    12 alpha electrons       12 beta electrons
       nuclear repulsion energy        70.7733592695 Hartrees.
 IExCor= 3630 DFT=T Ex+Corr=B97D ExCW=0 ScaHFX=  0.000000
 ScaDFX=  1.000000  1.000000  1.000000  1.000000 ScalE2=  1.000000  1.000000
 IRadAn=      0 IRanWt=     -1 IRanGd=            0 ICorTp=0 IEmpDi=121
 NAtoms=    9 NActive=    9 NUniq=    8 SFac= 1.27D+00 NAtFMM=   60 NAOKFM=F Big=F
 Integral buffers will be    131072 words long.
 Raffenetti 2 integral format.
 Two-electron integral symmetry is turned on.
 R6Disp:  Grimme-D2 Dispersion energy=       -0.0053399812 Hartrees.
 Nuclear repulsion after empirical dispersion term =       70.7680192883 Hartrees.
 Leave Link  301 at Sat Feb 16 13:47:09 2019, MaxMem=   196608000 cpu:         0.8
 (Enter /cm/shared/c3ddb/gaussian/09.d01/g09/l302.exe)
 NPDir=0 NMtPBC=     1 NCelOv=     1 NCel=       1 NClECP=     1 NCelD=      1
         NCelK=      1 NCelE2=     1 NClLst=     1 CellRange=     0.0.
 One-electron integrals computed using PRISM.
 One-electron integral symmetry used in STVInt
 NBasis=    39 RedAO= T EigKep=  8.91D-03  NBF=    31     8
 NBsUse=    39 1.00D-06 EigRej= -1.00D+00 NBFU=    31     8
 Precomputing XC quadrature grid using
 IXCGrd= 4 IRadAn=           0 IRanWt=          -1 IRanGd=           0 AccXCQ= 0.00D+00.
 Generated NRdTot=       0 NPtTot=           0 NUsed=           0 NTot=          32
 NSgBfM=    39    39    39    39    39 MxSgAt=     9 MxSgA2=     9.
 Leave Link  302 at Sat Feb 16 13:47:09 2019, MaxMem=   196608000 cpu:         3.5
 (Enter /cm/shared/c3ddb/gaussian/09.d01/g09/l303.exe)
 DipDrv:  MaxL=1.
 Leave Link  303 at Sat Feb 16 13:47:09 2019, MaxMem=   196608000 cpu:         0.9
 (Enter /cm/shared/c3ddb/gaussian/09.d01/g09/l401.exe)
 ExpMin= 1.61D-01 ExpMax= 3.05D+03 ExpMxC= 4.57D+02 IAcc=1 IRadAn=         1 AccDes= 0.00D+00
 Harris functional with IExCor= 3630 and IRadAn=       1 diagonalized for initial guess.
 HarFok:  IExCor= 3630 AccDes= 0.00D+00 IRadAn=         1 IDoV= 1 UseB2=F ITyADJ=14
 ICtDFT=  3500011 ScaDFX=  1.000000  1.000000  1.000000  1.000000
 FoFCou: FMM=F IPFlag=           0 FMFlag=      100000 FMFlg1=           0
         NFxFlg=           0 DoJE=T BraDBF=F KetDBF=T FulRan=T
         wScrn=  0.000000 ICntrl=     500 IOpCl=  0 I1Cent=   200000004 NGrid=           0
         NMat0=    1 NMatS0=      1 NMatT0=    0 NMatD0=    1 NMtDS0=    0 NMtDT0=    0
 Petite list used in FoFCou.
 Harris En= -117.891368448339    
 JPrj=0 DoOrth=F DoCkMO=F.
 Initial guess orbital symmetries:
       Occupied  (A') (A') (A') (A') (A') (A') (A') (A') (A") (A')
                 (A') (A")
       Virtual   (A") (A') (A') (A') (A') (A") (A') (A') (A') (A')
                 (A") (A') (A') (A") (A") (A') (A') (A') (A') (A')
                 (A") (A') (A') (A') (A') (A') (A')
 The electronic state of the initial guess is 1-A'.
 Leave Link  401 at Sat Feb 16 13:47:10 2019, MaxMem=   196608000 cpu:         4.7
 (Enter /cm/shared/c3ddb/gaussian/09.d01/g09/l502.exe)
 Closed shell SCF:
 Using DIIS extrapolation, IDIIS=  1040.
 Integral symmetry usage will be decided dynamically.
 Keep J ints in memory in symmetry-blocked form, NReq=1178578.
 IVT=       11193 IEndB=       11193 NGot=   196608000 MDV=   196422111
 LenX=   196422111 LenY=   196420149
 Requested convergence on RMS density matrix=1.00D-08 within  64 cycles.
 Requested convergence on MAX density matrix=1.00D-06.
 Requested convergence on             energy=1.00D-06.
 No special actions if energy rises.
 FoFCou: FMM=F IPFlag=           0 FMFlag=           0 FMFlg1=           0
         NFxFlg=           0 DoJE=F BraDBF=F KetDBF=F FulRan=T
         wScrn=  0.000000 ICntrl=     600 IOpCl=  0 I1Cent=           0 NGrid=           0
         NMat0=    1 NMatS0=    780 NMatT0=    0 NMatD0=    1 NMtDS0=    0 NMtDT0=    0
 Petite list used in FoFCou.
 Integral accuracy reduced to 1.0D-05 until final iterations.

 Cycle   1  Pass 0  IDiag  1:
 E= -117.683705140863    
 DIIS: error= 5.15D-02 at cycle   1 NSaved=   1.
 NSaved= 1 IEnMin= 1 EnMin= -117.683705140863     IErMin= 1 ErrMin= 5.15D-02
 ErrMax= 5.15D-02  0.00D+00 EMaxC= 1.00D-01 BMatC= 9.39D-02 BMatP= 9.39D-02
 IDIUse=3 WtCom= 4.85D-01 WtEn= 5.15D-01
 Coeff-Com:  0.100D+01
 Coeff-En:   0.100D+01
 Coeff:      0.100D+01
 Gap=     0.208 Goal=   None    Shift=    0.000
 GapD=    0.208 DampG=1.000 DampE=0.500 DampFc=0.5000 IDamp=-1.
 Damping current iteration by 5.00D-01
 RMSDP=2.01D-02 MaxDP=1.40D-01              OVMax= 1.76D-01

 Cycle   2  Pass 0  IDiag  1:
 E= -117.729439322748     Delta-E=       -0.045734181885 Rises=F Damp=T
 DIIS: error= 6.18D-03 at cycle   2 NSaved=   2.
 NSaved= 2 IEnMin= 2 EnMin= -117.729439322748     IErMin= 2 ErrMin= 6.18D-03
 ErrMax= 6.18D-03  0.00D+00 EMaxC= 1.00D-01 BMatC= 3.10D-03 BMatP= 9.39D-02
 IDIUse=3 WtCom= 9.38D-01 WtEn= 6.18D-02
 Coeff-Com:  0.126D+00 0.874D+00
 Coeff-En:   0.215D+00 0.785D+00
 Coeff:      0.131D+00 0.869D+00
 Gap=     0.215 Goal=   None    Shift=    0.000
 RMSDP=3.08D-03 MaxDP=2.38D-02 DE=-4.57D-02 OVMax= 9.89D-02

 Cycle   3  Pass 0  IDiag  1:
 E= -117.796120867181     Delta-E=       -0.066681544433 Rises=F Damp=F
 DIIS: error= 2.12D-03 at cycle   3 NSaved=   3.
 NSaved= 3 IEnMin= 3 EnMin= -117.796120867181     IErMin= 3 ErrMin= 2.12D-03
 ErrMax= 2.12D-03  0.00D+00 EMaxC= 1.00D-01 BMatC= 1.70D-04 BMatP= 3.10D-03
 IDIUse=3 WtCom= 9.79D-01 WtEn= 2.12D-02
 Coeff-Com:  0.226D-01 0.192D+00 0.785D+00
 Coeff-En:   0.000D+00 0.000D+00 0.100D+01
 Coeff:      0.221D-01 0.188D+00 0.790D+00
 Gap=     0.214 Goal=   None    Shift=    0.000
 RMSDP=7.83D-04 MaxDP=9.76D-03 DE=-6.67D-02 OVMax= 1.86D-02

 Cycle   4  Pass 0  IDiag  1:
 E= -117.795991060781     Delta-E=        0.000129806400 Rises=F Damp=F
 DIIS: error= 3.80D-03 at cycle   4 NSaved=   4.
 NSaved= 4 IEnMin= 3 EnMin= -117.796120867181     IErMin= 3 ErrMin= 2.12D-03
 ErrMax= 3.80D-03  0.00D+00 EMaxC= 1.00D-01 BMatC= 2.93D-04 BMatP= 1.70D-04
 IDIUse=3 WtCom= 1.40D-01 WtEn= 8.60D-01
 Coeff-Com:  0.778D-02 0.744D-01 0.562D+00 0.356D+00
 Coeff-En:   0.000D+00 0.000D+00 0.599D+00 0.401D+00
 Coeff:      0.109D-02 0.104D-01 0.594D+00 0.395D+00
 Gap=     0.214 Goal=   None    Shift=    0.000
 RMSDP=4.74D-04 MaxDP=6.31D-03 DE= 1.30D-04 OVMax= 1.29D-02

 Cycle   5  Pass 0  IDiag  1:
 E= -117.796311588869     Delta-E=       -0.000320528088 Rises=F Damp=F
 DIIS: error= 6.38D-04 at cycle   5 NSaved=   5.
 NSaved= 5 IEnMin= 5 EnMin= -117.796311588869     IErMin= 5 ErrMin= 6.38D-04
 ErrMax= 6.38D-04  0.00D+00 EMaxC= 1.00D-01 BMatC= 2.08D-05 BMatP= 1.70D-04
 IDIUse=3 WtCom= 9.94D-01 WtEn= 6.38D-03
 Coeff-Com:  0.356D-02 0.181D-01 0.285D+00 0.229D+00 0.465D+00
 Coeff-En:   0.000D+00 0.000D+00 0.000D+00 0.132D-02 0.999D+00
 Coeff:      0.353D-02 0.180D-01 0.283D+00 0.228D+00 0.468D+00
 Gap=     0.214 Goal=   None    Shift=    0.000
 RMSDP=1.37D-04 MaxDP=1.16D-03 DE=-3.21D-04 OVMax= 2.15D-03

 Cycle   6  Pass 0  IDiag  1:
 E= -117.796333746220     Delta-E=       -0.000022157351 Rises=F Damp=F
 DIIS: error= 1.47D-04 at cycle   6 NSaved=   6.
 NSaved= 6 IEnMin= 6 EnMin= -117.796333746220     IErMin= 6 ErrMin= 1.47D-04
 ErrMax= 1.47D-04  0.00D+00 EMaxC= 1.00D-01 BMatC= 1.00D-06 BMatP= 2.08D-05
 IDIUse=3 WtCom= 9.99D-01 WtEn= 1.47D-03
 Coeff-Com:  0.903D-03-0.863D-03 0.679D-01 0.656D-01 0.242D+00 0.625D+00
 Coeff-En:   0.000D+00 0.000D+00 0.000D+00 0.000D+00 0.000D+00 0.100D+01
 Coeff:      0.901D-03-0.862D-03 0.678D-01 0.655D-01 0.241D+00 0.625D+00
 Gap=     0.214 Goal=   None    Shift=    0.000
 RMSDP=3.46D-05 MaxDP=2.35D-04 DE=-2.22D-05 OVMax= 4.58D-04

 Cycle   7  Pass 0  IDiag  1:
 E= -117.796334900024     Delta-E=       -0.000001153804 Rises=F Damp=F
 DIIS: error= 1.95D-05 at cycle   7 NSaved=   7.
 NSaved= 7 IEnMin= 7 EnMin= -117.796334900024     IErMin= 7 ErrMin= 1.95D-05
 ErrMax= 1.95D-05  0.00D+00 EMaxC= 1.00D-01 BMatC= 1.27D-08 BMatP= 1.00D-06
 IDIUse=1 WtCom= 1.00D+00 WtEn= 0.00D+00
 Coeff-Com:  0.226D-03-0.888D-03 0.145D-01 0.165D-01 0.664D-01 0.217D+00
 Coeff-Com:  0.686D+00
 Coeff:      0.226D-03-0.888D-03 0.145D-01 0.165D-01 0.664D-01 0.217D+00
 Coeff:      0.686D+00
 Gap=     0.214 Goal=   None    Shift=    0.000
 RMSDP=5.99D-06 MaxDP=3.59D-05 DE=-1.15D-06 OVMax= 6.24D-05

 Initial convergence to 1.0D-05 achieved.  Increase integral accuracy.
 Cycle   8  Pass 1  IDiag  1:
 E= -117.796342895863     Delta-E=       -0.000007995839 Rises=F Damp=F
 DIIS: error= 5.90D-06 at cycle   1 NSaved=   1.
 NSaved= 1 IEnMin= 1 EnMin= -117.796342895863     IErMin= 1 ErrMin= 5.90D-06
 ErrMax= 5.90D-06  0.00D+00 EMaxC= 1.00D-01 BMatC= 3.73D-09 BMatP= 3.73D-09
 IDIUse=1 WtCom= 1.00D+00 WtEn= 0.00D+00
 Coeff-Com:  0.100D+01
 Coeff:      0.100D+01
 Gap=     0.214 Goal=   None    Shift=    0.000
 RMSDP=5.99D-06 MaxDP=3.59D-05 DE=-8.00D-06 OVMax= 3.99D-05

 Cycle   9  Pass 1  IDiag  1:
 E= -117.796342900893     Delta-E=       -0.000000005030 Rises=F Damp=F
 DIIS: error= 6.55D-06 at cycle   2 NSaved=   2.
 NSaved= 2 IEnMin= 2 EnMin= -117.796342900893     IErMin= 1 ErrMin= 5.90D-06
 ErrMax= 6.55D-06  0.00D+00 EMaxC= 1.00D-01 BMatC= 9.16D-10 BMatP= 3.73D-09
 IDIUse=1 WtCom= 1.00D+00 WtEn= 0.00D+00
 Coeff-Com:  0.235D+00 0.765D+00
 Coeff:      0.235D+00 0.765D+00
 Gap=     0.214 Goal=   None    Shift=    0.000
 RMSDP=2.10D-06 MaxDP=2.68D-05 DE=-5.03D-09 OVMax= 5.76D-05

 Cycle  10  Pass 1  IDiag  1:
 E= -117.796342899073     Delta-E=        0.000000001820 Rises=F Damp=F
 DIIS: error= 1.11D-05 at cycle   3 NSaved=   3.
 NSaved= 3 IEnMin= 2 EnMin= -117.796342900893     IErMin= 1 ErrMin= 5.90D-06
 ErrMax= 1.11D-05  0.00D+00 EMaxC= 1.00D-01 BMatC= 2.56D-09 BMatP= 9.16D-10
 IDIUse=1 WtCom= 1.00D+00 WtEn= 0.00D+00
 Coeff-Com:  0.280D-01 0.615D+00 0.357D+00
 Coeff:      0.280D-01 0.615D+00 0.357D+00
 Gap=     0.214 Goal=   None    Shift=    0.000
 RMSDP=1.21D-06 MaxDP=1.61D-05 DE= 1.82D-09 OVMax= 3.52D-05

 Cycle  11  Pass 1  IDiag  1:
 E= -117.796342902059     Delta-E=       -0.000000002985 Rises=F Damp=F
 DIIS: error= 8.50D-07 at cycle   4 NSaved=   4.
 NSaved= 4 IEnMin= 4 EnMin= -117.796342902059     IErMin= 4 ErrMin= 8.50D-07
 ErrMax= 8.50D-07  0.00D+00 EMaxC= 1.00D-01 BMatC= 3.65D-11 BMatP= 9.16D-10
 IDIUse=1 WtCom= 1.00D+00 WtEn= 0.00D+00
 Coeff-Com:  0.217D-02 0.299D+00 0.183D+00 0.516D+00
 Coeff:      0.217D-02 0.299D+00 0.183D+00 0.516D+00
 Gap=     0.214 Goal=   None    Shift=    0.000
 RMSDP=1.61D-07 MaxDP=1.54D-06 DE=-2.99D-09 OVMax= 1.82D-06

 Cycle  12  Pass 1  IDiag  1:
 E= -117.796342902095     Delta-E=       -0.000000000036 Rises=F Damp=F
 DIIS: error= 2.60D-07 at cycle   5 NSaved=   5.
 NSaved= 5 IEnMin= 5 EnMin= -117.796342902095     IErMin= 5 ErrMin= 2.60D-07
 ErrMax= 2.60D-07  0.00D+00 EMaxC= 1.00D-01 BMatC= 2.03D-12 BMatP= 3.65D-11
 IDIUse=1 WtCom= 1.00D+00 WtEn= 0.00D+00
 Coeff-Com: -0.862D-03 0.104D+00 0.595D-01 0.257D+00 0.580D+00
 Coeff:     -0.862D-03 0.104D+00 0.595D-01 0.257D+00 0.580D+00
 Gap=     0.214 Goal=   None    Shift=    0.000
 RMSDP=5.93D-08 MaxDP=3.63D-07 DE=-3.64D-11 OVMax= 8.76D-07

 Cycle  13  Pass 1  IDiag  1:
 E= -117.796342902098     Delta-E=       -0.000000000003 Rises=F Damp=F
 DIIS: error= 2.30D-08 at cycle   6 NSaved=   6.
 NSaved= 6 IEnMin= 6 EnMin= -117.796342902098     IErMin= 6 ErrMin= 2.30D-08
 ErrMax= 2.30D-08  0.00D+00 EMaxC= 1.00D-01 BMatC= 1.55D-14 BMatP= 2.03D-12
 IDIUse=1 WtCom= 1.00D+00 WtEn= 0.00D+00
 Coeff-Com: -0.328D-03 0.176D-01 0.982D-02 0.488D-01 0.154D+00 0.770D+00
 Coeff:     -0.328D-03 0.176D-01 0.982D-02 0.488D-01 0.154D+00 0.770D+00
 Gap=     0.214 Goal=   None    Shift=    0.000
 RMSDP=5.67D-09 MaxDP=4.26D-08 DE=-2.59D-12 OVMax= 5.47D-08

 SCF Done:  E(RB97D) =  -117.796342902     A.U. after   13 cycles
            NFock= 13  Conv=0.57D-08     -V/T= 2.0047
 KE= 1.172502080854D+02 PE=-4.142393046125D+02 EE= 1.084247343368D+02
 Leave Link  502 at Sat Feb 16 13:47:18 2019, MaxMem=   196608000 cpu:        43.7
 (Enter /cm/shared/c3ddb/gaussian/09.d01/g09/l508.exe)
 QCSCF skips out because SCF is already converged.
 Leave Link  508 at Sat Feb 16 13:47:18 2019, MaxMem=   196608000 cpu:         0.0
 (Enter /cm/shared/c3ddb/gaussian/09.d01/g09/l801.exe)
 DoSCS=F DFT=T ScalE2(SS,OS)=  1.000000  1.000000
 Range of M.O.s used for correlation:     1    39
 NBasis=    39 NAE=    12 NBE=    12 NFC=     0 NFV=     0
 NROrb=     39 NOA=    12 NOB=    12 NVA=    27 NVB=    27
 Leave Link  801 at Sat Feb 16 13:47:18 2019, MaxMem=   196608000 cpu:         0.2
 (Enter /cm/shared/c3ddb/gaussian/09.d01/g09/l1101.exe)
 Using compressed storage, NAtomX=     9.
 Will process     10 centers per pass.
 R6Disp: Adding Grimme-D2 dispersion energy 1st derivatives to the gradient.
 Leave Link 1101 at Sat Feb 16 13:47:19 2019, MaxMem=   196608000 cpu:         3.3
 (Enter /cm/shared/c3ddb/gaussian/09.d01/g09/l1102.exe)
 Symmetrizing basis deriv contribution to polar:
 IMax=3 JMax=2 DiffMx= 0.00D+00
 Leave Link 1102 at Sat Feb 16 13:47:19 2019, MaxMem=   196608000 cpu:         0.7
 (Enter /cm/shared/c3ddb/gaussian/09.d01/g09/l1110.exe)
 Forming Gx(P) for the SCF density, NAtomX=     9.
 Integral derivatives from FoFJK, PRISM(SPDF).
 Do as many integral derivatives as possible in FoFJK.
 G2DrvN: MDV=     196607824.
 G2DrvN: will do    10 centers at a time, making    1 passes.
 Calling FoFCou, ICntrl=  3507 FMM=F I1Cent=   0 AccDes= 0.00D+00.
 FoFJK:  IHMeth= 1 ICntrl=    3507 DoSepK=F KAlg= 0 I1Cent=   0 FoldK=F
 IRaf=         0 NMat=   1 IRICut=       1 DoRegI=T DoRafI=F ISym2E= 1.
 FoFCou: FMM=F IPFlag=           0 FMFlag=      100000 FMFlg1=           0
         NFxFlg=           0 DoJE=F BraDBF=F KetDBF=F FulRan=T
         wScrn=  0.000000 ICntrl=    3507 IOpCl=  0 I1Cent=           0 NGrid=           0
         NMat0=    1 NMatS0=      1 NMatT0=    0 NMatD0=    1 NMtDS0=    0 NMtDT0=    0
 Petite list used in FoFCou.
 End of G2Drv F.D. properties file   721 does not exist.
 End of G2Drv F.D. properties file   722 does not exist.
 End of G2Drv F.D. properties file   788 does not exist.
 Leave Link 1110 at Sat Feb 16 13:47:20 2019, MaxMem=   196608000 cpu:         9.9
 (Enter /cm/shared/c3ddb/gaussian/09.d01/g09/l1002.exe)
 Minotr:  Closed shell wavefunction.
          IDoAtm=111111111
          Direct CPHF calculation.
          Differentiating once with respect to nuclear coordinates.
          Using symmetry in CPHF.
          Requested convergence is 1.0D-08 RMS, and 1.0D-07 maximum.
          Secondary convergence is 1.0D-12 RMS, and 1.0D-12 maximum.
          NewPWx=T KeepS1=F KeepF1=F KeepIn=T MapXYZ=F SortEE=F KeepMc=T.
          MDV=     196607867 using IRadAn=       2.
 Generate precomputed XC quadrature information.
 Keep J ints in memory in symmetry-blocked form, NReq=1168411.
 FoFCou: FMM=F IPFlag=           0 FMFlag=           0 FMFlg1=           0
         NFxFlg=           0 DoJE=F BraDBF=F KetDBF=F FulRan=T
         wScrn=  0.000000 ICntrl=     600 IOpCl=  0 I1Cent=           0 NGrid=           0
         NMat0=    1 NMatS0=    780 NMatT0=    0 NMatD0=    1 NMtDS0=    0 NMtDT0=    0
 Petite list used in FoFCou.
          Solving linear equations simultaneously, MaxMat=       0.
          There are    27 degrees of freedom in the 1st order CPHF.  IDoFFX=4 NUNeed=    27.
     24 vectors produced by pass  0 Test12= 1.20D-15 3.70D-09 XBig12= 8.52D-02 1.15D-01.
 AX will form    24 AO Fock derivatives at one time.
     24 vectors produced by pass  1 Test12= 1.20D-15 3.70D-09 XBig12= 8.72D-03 3.96D-02.
     24 vectors produced by pass  2 Test12= 1.20D-15 3.70D-09 XBig12= 2.77D-05 1.75D-03.
     24 vectors produced by pass  3 Test12= 1.20D-15 3.70D-09 XBig12= 7.69D-09 3.15D-05.
      8 vectors produced by pass  4 Test12= 1.20D-15 3.70D-09 XBig12= 2.08D-13 1.06D-07.
 InvSVY:  IOpt=1 It=  1 EMax= 2.22D-16
 Solved reduced A of dimension   104 with    27 vectors.
 FullF1:  Do perturbations    4 to    27.
 End of Minotr F.D. properties file   721 does not exist.
 End of Minotr F.D. properties file   722 does not exist.
 End of Minotr F.D. properties file   788 does not exist.
 Leave Link 1002 at Sat Feb 16 13:47:24 2019, MaxMem=   196608000 cpu:        26.0
 (Enter /cm/shared/c3ddb/gaussian/09.d01/g09/l601.exe)
 Copying SCF densities to generalized density rwf, IOpCl= 0 IROHF=0.

 **********************************************************************

            Population analysis using the SCF density.

 **********************************************************************

 Orbital symmetries:
       Occupied  (A') (A') (A') (A') (A') (A') (A') (A') (A") (A')
                 (A') (A")
       Virtual   (A") (A') (A') (A') (A") (A') (A') (A') (A') (A')
                 (A") (A') (A') (A") (A") (A') (A') (A') (A') (A')
                 (A") (A') (A') (A') (A') (A') (A')
 The electronic state is 1-A'.
 Alpha  occ. eigenvalues --   -9.90815  -9.89882  -9.89243  -0.71191  -0.61680
 Alpha  occ. eigenvalues --   -0.49456  -0.41218  -0.37047  -0.36652  -0.31963
 Alpha  occ. eigenvalues --   -0.30054  -0.21355
 Alpha virt. eigenvalues --    0.00028   0.09597   0.11409   0.13108   0.15362
 Alpha virt. eigenvalues --    0.15787   0.17120   0.26229   0.34961   0.49123
 Alpha virt. eigenvalues --    0.51320   0.52842   0.59442   0.61635   0.62291
 Alpha virt. eigenvalues --    0.67174   0.71809   0.76059   0.83421   0.88389
 Alpha virt. eigenvalues --    0.88708   0.91202   0.92887   0.94269   1.11483
 Alpha virt. eigenvalues --    1.22716   1.33505
          Condensed to atoms (all electrons):
               1          2          3          4          5          6
     1  C    5.113091   0.362128  -0.048403   0.375356   0.366184   0.366184
     2  C    0.362128   4.843591   0.659571  -0.037958  -0.036774  -0.036774
     3  C   -0.048403   0.659571   4.997624  -0.005731   0.000310   0.000310
     4  H    0.375356  -0.037958  -0.005731   0.567580  -0.029520  -0.029520
     5  H    0.366184  -0.036774   0.000310  -0.029520   0.580561  -0.033585
     6  H    0.366184  -0.036774   0.000310  -0.029520  -0.033585   0.580561
     7  H   -0.053905   0.373646  -0.043631   0.004507  -0.001229  -0.001229
     8  H    0.005858  -0.030527   0.368113   0.000088  -0.000209  -0.000209
     9  H   -0.012325  -0.039363   0.374204   0.006361   0.000206   0.000206
               7          8          9
     1  C   -0.053905   0.005858  -0.012325
     2  C    0.373646  -0.030527  -0.039363
     3  C   -0.043631   0.368113   0.374204
     4  H    0.004507   0.000088   0.006361
     5  H   -0.001229  -0.000209   0.000206
     6  H   -0.001229  -0.000209   0.000206
     7  H    0.598464  -0.008408   0.005707
     8  H   -0.008408   0.580039  -0.040484
     9  H    0.005707  -0.040484   0.580170
 Mulliken charges:
               1
     1  C   -0.474170
     2  C   -0.057541
     3  C   -0.302368
     4  H    0.148836
     5  H    0.154054
     6  H    0.154054
     7  H    0.126077
     8  H    0.125739
     9  H    0.125318
 Sum of Mulliken charges =   0.00000
 Mulliken charges with hydrogens summed into heavy atoms:
               1
     1  C   -0.017225
     2  C    0.068536
     3  C   -0.051311
 APT charges:
               1
     1  C   -1.135346
     2  C   -0.491661
     3  C   -0.690884
     4  H    0.338853
     5  H    0.397074
     6  H    0.397074
     7  H    0.377289
     8  H    0.463650
     9  H    0.343951
 Sum of APT charges =   0.00000
 APT charges with hydrogens summed into heavy atoms:
               1
     1  C   -0.002345
     2  C   -0.114372
     3  C    0.116718
 Electronic spatial extent (au):  <R**2>=            195.4539
 Charge=              0.0000 electrons
 Dipole moment (field-independent basis, Debye):
    X=             -0.1474    Y=              0.3769    Z=              0.0000  Tot=              0.4046
 Quadrupole moment (field-independent basis, Debye-Ang):
   XX=            -18.5970   YY=            -19.0062   ZZ=            -21.2399
   XY=             -0.0173   XZ=              0.0000   YZ=              0.0000
 Traceless Quadrupole moment (field-independent basis, Debye-Ang):
   XX=              1.0174   YY=              0.6081   ZZ=             -1.6256
   XY=             -0.0173   XZ=              0.0000   YZ=              0.0000
 Octapole moment (field-independent basis, Debye-Ang**2):
  XXX=              0.3846  YYY=             -1.8216  ZZZ=              0.0000  XYY=             -0.5497
  XXY=             -0.2945  XXZ=              0.0000  XZZ=             -0.5401  YZZ=              2.2557
  YYZ=              0.0000  XYZ=              0.0000
 Hexadecapole moment (field-independent basis, Debye-Ang**3):
 XXXX=            -52.2914 YYYY=           -175.2539 ZZZZ=            -28.4205 XXXY=              8.8319
 XXXZ=              0.0000 YYYX=              8.9670 YYYZ=              0.0000 ZZZX=              0.0000
 ZZZY=              0.0000 XXYY=            -39.1002 XXZZ=            -14.7302 YYZZ=            -35.1219
 XXYZ=              0.0000 YYXZ=              0.0000 ZZXY=              2.3027
 N-N= 7.076801928825D+01 E-N=-4.142393059678D+02  KE= 1.172502080854D+02
 Symmetry A'   KE= 1.131581396697D+02
 Symmetry A"   KE= 4.092068415678D+00
  Exact polarizability:   0.000   0.000   0.000   0.000   0.000   0.000
 Approx polarizability:  54.760 -16.544  66.704   0.000   0.000  25.351
 No NMR shielding tensors so no spin-rotation constants.
 Leave Link  601 at Sat Feb 16 13:47:25 2019, MaxMem=   196608000 cpu:         5.4
 (Enter /cm/shared/c3ddb/gaussian/09.d01/g09/l701.exe)
 Compute integral second derivatives.
 ... and contract with generalized density number  0.
 R6Disp: Adding Grimme-D2 dispersion energy 2nd derivatives to the Hessian.
 Leave Link  701 at Sat Feb 16 13:47:25 2019, MaxMem=   196608000 cpu:         2.6
 (Enter /cm/shared/c3ddb/gaussian/09.d01/g09/l702.exe)
 L702 exits ... SP integral derivatives will be done elsewhere.
 Leave Link  702 at Sat Feb 16 13:47:26 2019, MaxMem=   196608000 cpu:         0.2
 (Enter /cm/shared/c3ddb/gaussian/09.d01/g09/l703.exe)
 Compute integral second derivatives, UseDBF=F ICtDFT=           0.
 Integral derivatives from FoFJK, PRISM(SPDF).
 Calling FoFJK, ICntrl=    100547 FMM=F ISym2X=1 I1Cent= 0 IOpClX= 0 NMat=1 NMatS=1 NMatT=0.
 FoFJK:  IHMeth= 1 ICntrl=  100547 DoSepK=F KAlg= 0 I1Cent=   0 FoldK=F
 IRaf=         0 NMat=   1 IRICut=       1 DoRegI=T DoRafI=F ISym2E= 1.
 FoFCou: FMM=F IPFlag=           0 FMFlag=      100000 FMFlg1=         800
         NFxFlg=           0 DoJE=F BraDBF=F KetDBF=F FulRan=T
         wScrn=  0.000000 ICntrl=  100547 IOpCl=  0 I1Cent=           0 NGrid=           0
         NMat0=    1 NMatS0=      1 NMatT0=    0 NMatD0=    1 NMtDS0=    0 NMtDT0=    0
 Petite list used in FoFCou.
 Leave Link  703 at Sat Feb 16 13:47:27 2019, MaxMem=   196608000 cpu:        10.5
 (Enter /cm/shared/c3ddb/gaussian/09.d01/g09/l716.exe)
 Dipole        =-5.79779014D-02 1.48268672D-01-8.99129381D-17
 Polarizability= 0.00000000D+00 0.00000000D+00 0.00000000D+00
                 0.00000000D+00 0.00000000D+00 0.00000000D+00
 ***** Axes restored to original set *****
 -------------------------------------------------------------------
 Center     Atomic                   Forces (Hartrees/Bohr)
 Number     Number              X              Y              Z
 -------------------------------------------------------------------
      1        6          -0.001663405    0.000148332   -0.000330610
      2        6           0.003215046    0.000688303   -0.001120902
      3        6           0.005509941   -0.001375316    0.002690732
      4        1           0.001962836    0.001879593   -0.003318547
      5        1          -0.006708809    0.002842982    0.002305398
      6        1          -0.006572337   -0.003674964   -0.001305584
      7        1          -0.001378748   -0.002521875    0.004499963
      8        1           0.004689636   -0.000346056    0.000801881
      9        1           0.000945840    0.002359001   -0.004222330
 -------------------------------------------------------------------
 Cartesian Forces:  Max     0.006708809 RMS     0.003134154
 Force constants in Cartesian coordinates: 
                1             2             3             4             5 
      1  0.506339D+00
      2  0.163452D-01  0.543249D+00
      3 -0.307150D-01 -0.814749D-02  0.551938D+00
      4 -0.182845D+00  0.332462D-01 -0.642353D-01  0.795177D+00
      5  0.293760D-01 -0.852817D-01  0.267745D-01  0.687235D-01  0.263706D+00
      6 -0.572492D-01  0.269208D-01 -0.121820D+00 -0.993466D-01 -0.217835D+00
      7 -0.338474D-01 -0.519428D-02  0.776444D-02 -0.493027D+00 -0.876170D-01
      8  0.886723D-02  0.907538D-02 -0.180679D-03 -0.875185D-01 -0.809819D-01
      9 -0.176171D-01 -0.712114D-03  0.940919D-02  0.141131D+00  0.573586D-01
     10 -0.589880D-01 -0.266508D-01  0.476849D-01  0.493552D-02  0.152148D-01
     11 -0.254000D-01 -0.107610D+00  0.106896D+00 -0.262008D-02 -0.441006D-02
     12  0.454273D-01  0.106848D+00 -0.239006D+00  0.492304D-02  0.819279D-02
     13 -0.121267D+00  0.879269D-01  0.869236D-01 -0.229164D-01  0.171637D-01
     14  0.874822D-01 -0.138320D+00 -0.902069D-01  0.423381D-02 -0.266308D-02
     15  0.844729D-01 -0.891731D-01 -0.134618D+00 -0.119214D-01  0.115322D-01
     16 -0.112737D+00 -0.116257D+00 -0.281683D-01 -0.221042D-01 -0.244110D-01
     17 -0.113963D+00 -0.223817D+00 -0.433575D-01  0.676554D-02  0.942541D-02
     18 -0.290566D-01 -0.444612D-01 -0.576517D-01 -0.985222D-02 -0.136056D-01
     19  0.338010D-02  0.134776D-01 -0.242782D-01 -0.570240D-01 -0.137490D-01
     20 -0.254737D-02 -0.147393D-02  0.630492D-02 -0.162424D-01 -0.106470D+00
     21  0.464752D-02  0.691056D-02 -0.102258D-01  0.286115D-01  0.122482D+00
     22 -0.169098D-02 -0.199870D-02  0.302991D-02 -0.201305D-01  0.107443D-01
     23 -0.105280D-02  0.102376D-01  0.602544D-02 -0.808235D-02  0.488204D-02
     24  0.132252D-02  0.598969D-02  0.283613D-02  0.136899D-01 -0.180450D-02
     25  0.165713D-02 -0.895106D-03  0.199399D-02 -0.206576D-02 -0.154452D-01
     26  0.892246D-03 -0.605769D-02 -0.410803D-02  0.149430D-02  0.179266D-02
     27 -0.123224D-02 -0.417558D-02 -0.861752D-03 -0.299987D-02  0.690481D-02
                6             7             8             9            10 
      6  0.531031D+00
      7  0.141309D+00  0.825002D+00
      8  0.573623D-01  0.474329D-01  0.234217D+00
      9 -0.145571D+00 -0.581293D-01 -0.244690D+00  0.537141D+00
     10 -0.272696D-01  0.972345D-03  0.932419D-03 -0.161624D-02  0.636067D-01
     11  0.751874D-02 -0.558756D-03 -0.230989D-03 -0.103992D-02  0.269964D-01
     12 -0.147920D-01  0.107538D-02 -0.983563D-03  0.102060D-02 -0.480411D-01
     13  0.171169D-01 -0.639630D-03  0.176902D-02 -0.346277D-02 -0.349193D-02
     14 -0.496625D-02 -0.739217D-04 -0.532177D-03  0.957894D-03 -0.101368D-01
     15  0.107929D-01 -0.141317D-02  0.121711D-03 -0.776647D-03  0.149216D-01
     16 -0.595456D-02 -0.671157D-03  0.196841D-02 -0.332418D-02 -0.335016D-02
     17  0.358245D-02  0.122379D-02 -0.119529D-03 -0.156849D-03 -0.693370D-02
     18 -0.210781D-02 -0.703162D-03  0.777127D-03 -0.115777D-02  0.155744D-01
     19  0.241108D-01 -0.261972D-02 -0.163539D-01  0.291772D-01 -0.437828D-02
     20  0.122388D+00  0.143046D-02  0.221612D-02  0.766684D-02  0.126820D-02
     21 -0.258330D+00 -0.292418D-02  0.699470D-02 -0.630254D-02 -0.252516D-02
     22 -0.202928D-01 -0.234256D+00  0.615697D-01 -0.118773D+00  0.473247D-03
     23 -0.251603D-02  0.648953D-01 -0.601363D-01  0.529174D-01 -0.143606D-03
     24  0.743195D-02 -0.124776D+00  0.527917D-01 -0.132185D+00  0.282933D-03
     25  0.275764D-01 -0.609138D-01 -0.186673D-01  0.326140D-01  0.220524D-03
     26  0.754502D-02 -0.215386D-01 -0.103507D+00  0.127698D+00 -0.546976D-03
     27 -0.663544D-02  0.377969D-01  0.127807D+00 -0.261578D+00  0.988237D-03
               11            12            13            14            15 
     11  0.112280D+00
     12 -0.119713D+00  0.259664D+00
     13  0.470835D-02  0.254398D-02  0.138163D+00
     14  0.949498D-02  0.108455D-01 -0.980310D-01  0.147050D+00
     15 -0.180002D-01 -0.144432D-01 -0.914879D-01  0.994624D-01  0.142695D+00
     16 -0.483023D-02 -0.264084D-02  0.981357D-02  0.166106D-01  0.487946D-02
     17 -0.113074D-01 -0.543622D-02 -0.120828D-01 -0.157062D-01 -0.245778D-02
     18  0.240500D-01  0.621741D-02 -0.107255D-01 -0.163760D-01 -0.408326D-02
     19  0.129475D-02 -0.257309D-02  0.107239D-02 -0.166315D-03  0.935344D-03
     20  0.145144D-02  0.797577D-03 -0.551568D-03  0.348652D-03 -0.447259D-03
     21  0.798580D-03  0.329845D-03 -0.426289D-03  0.343987D-03  0.556080D-03
     22 -0.109262D-03  0.220941D-03 -0.871045D-03  0.108320D-03 -0.181666D-03
     23  0.102953D-04 -0.302636D-03 -0.221069D-02  0.310022D-03 -0.101311D-02
     24 -0.301338D-03  0.400258D-03 -0.118532D-02 -0.833208D-04 -0.328366D-03
     25  0.518842D-03 -0.935601D-03  0.137114D-03 -0.268823D-04 -0.205261D-03
     26  0.322322D-03 -0.248690D-03  0.130806D-02  0.181639D-04 -0.248697D-04
     27 -0.208408D-03  0.609532D-03  0.703291D-03  0.226467D-04  0.206002D-03
               16            17            18            19            20 
     16  0.128766D+00
     17  0.125381D+00  0.241527D+00
     18  0.344394D-01  0.488466D-01  0.576147D-01
     19  0.105747D-02 -0.675989D-03  0.638265D-03  0.614735D-01
     20  0.668344D-03  0.450380D-03  0.311940D-03  0.170604D-01  0.998796D-01
     21  0.268727D-03 -0.515553D-03  0.469268D-03 -0.293489D-01 -0.137724D+00
     22 -0.961822D-03  0.936523D-04 -0.232589D-03  0.138311D-02  0.363591D-04
     23  0.215793D-02 -0.569262D-03  0.543798D-03  0.324717D-03 -0.550123D-02
     24  0.123086D-02 -0.376363D-03  0.641696D-03 -0.244423D-03 -0.389192D-02
     25  0.186854D-03  0.191265D-03 -0.819646D-04 -0.434459D-02 -0.112236D-02
     26 -0.128774D-02  0.116948D-03 -0.867574D-04 -0.121220D-02  0.909869D-02
     27 -0.730480D-03 -0.128829D-03  0.574780D-04  0.158292D-02  0.459407D-02
               21            22            23            24            25 
     21  0.270710D+00
     22  0.276072D-03  0.250577D+00
     23 -0.388102D-02 -0.671887D-01  0.518685D-01
     24 -0.642324D-03  0.129939D+00 -0.575395D-01  0.130170D+00
     25  0.142075D-02  0.547694D-02  0.113002D-01 -0.202604D-01  0.596456D-01
     26  0.459068D-02 -0.325559D-02 -0.110158D-02  0.521558D-02  0.241465D-01
     27  0.343470D-02  0.601330D-02  0.576569D-02 -0.832396D-02 -0.421220D-01
               26            27 
     26  0.993180D-01
     27 -0.140581D+00  0.273091D+00
 FormGI is forming the generalized inverse of G from B-inverse, IUseBI=4.
 Force constants in internal coordinates: 
                1             2             3             4             5 
      1  0.322324D+00
      2  0.293861D-02  0.337643D+00
      3  0.652514D-02  0.120063D-03  0.335463D+00
      4  0.652514D-02  0.120063D-03  0.761710D-03  0.335463D+00
      5  0.144855D-01  0.105001D-02 -0.119870D-02 -0.119870D-02  0.631899D+00
      6  0.335986D-02 -0.675262D-03  0.554286D-03  0.554286D-03  0.408409D-02
      7 -0.668297D-03 -0.404174D-03  0.350393D-03  0.350393D-03  0.299245D-02
      8  0.655672D-03  0.659583D-03 -0.159348D-03 -0.159348D-03  0.387920D-02
      9  0.185752D-01  0.359833D-02 -0.670315D-02 -0.670315D-02 -0.312106D-02
     10  0.175744D-01 -0.708379D-02  0.352414D-02 -0.704542D-02  0.175927D-02
     11  0.175744D-01 -0.708379D-02 -0.704542D-02  0.352414D-02  0.175927D-02
     12 -0.177680D-01  0.597417D-02  0.570811D-02 -0.121876D-02  0.112257D-03
     13 -0.177680D-01  0.597417D-02 -0.121876D-02  0.570811D-02  0.112257D-03
     14 -0.205908D-01 -0.114691D-02  0.630052D-02  0.630052D-02 -0.610544D-03
     15  0.238498D-01 -0.474481D-02  0.305185D-02  0.305185D-02  0.163652D-01
     16  0.383951D-02  0.433269D-02 -0.161608D-02 -0.161608D-02 -0.270164D-01
     17 -0.276893D-01  0.412116D-03 -0.143577D-02 -0.143577D-02  0.106512D-01
     18  0.446720D-02 -0.324208D-03  0.569929D-03  0.569929D-03  0.121962D-01
     19 -0.469409D-02  0.121081D-02 -0.497612D-03 -0.497612D-03  0.109750D-01
     20  0.226892D-03 -0.886601D-03 -0.723161D-04 -0.723161D-04 -0.231712D-01
     21  0.000000D+00  0.000000D+00  0.520300D-02 -0.520300D-02  0.000000D+00
     22  0.000000D+00  0.000000D+00  0.466403D-02 -0.466403D-02  0.000000D+00
     23 -0.181444D-02 -0.507672D-02 -0.149831D-04  0.558952D-02  0.710298D-03
     24 -0.181444D-02 -0.507672D-02 -0.553957D-03  0.612850D-02  0.710298D-03
     25  0.181444D-02  0.507672D-02 -0.558952D-02  0.149831D-04 -0.710298D-03
     26  0.181444D-02  0.507672D-02 -0.612850D-02  0.553957D-03 -0.710298D-03
     27  0.000000D+00  0.000000D+00 -0.108835D-02  0.108835D-02  0.000000D+00
     28  0.000000D+00  0.000000D+00 -0.937435D-03  0.937435D-03  0.000000D+00
     29  0.000000D+00  0.000000D+00 -0.536982D-03  0.536982D-03  0.000000D+00
     30  0.000000D+00  0.000000D+00 -0.386065D-03  0.386065D-03  0.000000D+00
                6             7             8             9            10 
      6  0.351327D+00
      7  0.974236D-03  0.358638D+00
      8 -0.278099D-03 -0.275360D-03  0.359329D+00
      9  0.366531D-02 -0.116862D-02  0.174415D-02  0.112701D+00
     10 -0.100948D-02  0.788960D-03 -0.155031D-03 -0.223658D-01  0.106426D+00
     11 -0.100948D-02  0.788960D-03 -0.155031D-03 -0.223658D-01 -0.158373D-01
     12 -0.900867D-03  0.159483D-03 -0.706953D-03 -0.403738D-01 -0.398502D-01
     13 -0.900867D-03  0.159483D-03 -0.706953D-03 -0.403738D-01  0.801317D-02
     14  0.612319D-04 -0.746246D-03 -0.874301D-04  0.958977D-02 -0.392112D-01
     15 -0.138399D-01  0.551004D-02 -0.496617D-02 -0.106811D-01  0.921446D-02
     16  0.628347D-02 -0.172352D-02 -0.275625D-03  0.142887D-01 -0.800622D-02
     17  0.755639D-02 -0.378652D-02  0.524180D-02 -0.360764D-02 -0.120824D-02
     18 -0.324948D-02  0.607066D-02 -0.133628D-01 -0.264566D-03  0.999323D-03
     19  0.402809D-02 -0.127725D-01  0.722215D-02 -0.229296D-03 -0.392445D-03
     20 -0.778616D-03  0.670184D-02  0.614063D-02  0.493862D-03 -0.606878D-03
     21  0.000000D+00  0.000000D+00  0.000000D+00  0.000000D+00  0.938370D-02
     22  0.000000D+00  0.000000D+00  0.000000D+00  0.000000D+00  0.634934D-02
     23 -0.585326D-03  0.280632D-04 -0.149428D-03 -0.790623D-02  0.160406D-02
     24 -0.585326D-03  0.280632D-04 -0.149428D-03 -0.790623D-02 -0.143029D-02
     25  0.585326D-03 -0.280632D-04  0.149428D-03  0.790623D-02 -0.608327D-02
     26  0.585326D-03 -0.280632D-04  0.149428D-03  0.790623D-02 -0.911762D-02
     27  0.000000D+00  0.000000D+00  0.000000D+00  0.000000D+00 -0.561664D-02
     28  0.000000D+00  0.000000D+00  0.000000D+00  0.000000D+00 -0.337416D-02
     29  0.000000D+00  0.000000D+00  0.000000D+00  0.000000D+00 -0.251250D-02
     30  0.000000D+00  0.000000D+00  0.000000D+00  0.000000D+00 -0.270023D-03
               11            12            13            14            15 
     11  0.106426D+00
     12  0.801317D-02  0.581504D-01
     13 -0.398502D-01  0.896778D-02  0.581504D-01
     14 -0.392112D-01  0.796514D-02  0.796514D-02  0.563952D-01
     15  0.921446D-02 -0.517757D-03 -0.517757D-03 -0.699963D-02  0.121239D+00
     16 -0.800622D-02 -0.155540D-02 -0.155540D-02  0.483681D-02 -0.592375D-01
     17 -0.120824D-02  0.207315D-02  0.207315D-02  0.216282D-02 -0.620011D-01
     18  0.999323D-03 -0.486937D-03 -0.486937D-03 -0.831276D-03  0.102214D-01
     19 -0.392445D-03  0.284523D-03  0.284523D-03  0.491833D-03 -0.856118D-02
     20 -0.606878D-03  0.202414D-03  0.202414D-03  0.339443D-03 -0.166019D-02
     21 -0.938370D-02  0.950549D-02 -0.950549D-02  0.000000D+00  0.000000D+00
     22 -0.634934D-02  0.104474D-01 -0.104474D-01  0.000000D+00  0.000000D+00
     23  0.608327D-02 -0.101330D-01  0.280265D-03  0.104759D-01  0.138279D-02
     24  0.911762D-02 -0.919106D-02 -0.661652D-03  0.104759D-01  0.138279D-02
     25 -0.160406D-02 -0.280265D-03  0.101330D-01 -0.104759D-01 -0.138279D-02
     26  0.143029D-02  0.661652D-03  0.919106D-02 -0.104759D-01 -0.138279D-02
     27  0.561664D-02  0.136427D-02 -0.136427D-02  0.000000D+00  0.000000D+00
     28  0.337416D-02  0.687200D-03 -0.687200D-03  0.000000D+00  0.000000D+00
     29  0.251250D-02  0.400695D-03 -0.400695D-03  0.000000D+00  0.000000D+00
     30  0.270023D-03 -0.276380D-03  0.276380D-03  0.000000D+00  0.000000D+00
               16            17            18            19            20 
     16  0.924027D-01
     17 -0.331651D-01  0.951663D-01
     18 -0.105148D-02 -0.916989D-02  0.834210D-01
     19 -0.171122D-02  0.102724D-01 -0.465291D-01  0.827154D-01
     20  0.276270D-02 -0.110251D-02 -0.368919D-01 -0.361863D-01  0.730783D-01
     21  0.000000D+00  0.000000D+00  0.000000D+00  0.000000D+00  0.000000D+00
     22  0.000000D+00  0.000000D+00  0.000000D+00  0.000000D+00  0.000000D+00
     23 -0.196695D-02  0.584156D-03  0.105603D-03  0.602119D-04 -0.165815D-03
     24 -0.196695D-02  0.584156D-03  0.105603D-03  0.602119D-04 -0.165815D-03
     25  0.196695D-02 -0.584156D-03 -0.105603D-03 -0.602119D-04  0.165815D-03
     26  0.196695D-02 -0.584156D-03 -0.105603D-03 -0.602119D-04  0.165815D-03
     27  0.000000D+00  0.000000D+00  0.000000D+00  0.000000D+00  0.000000D+00
     28  0.000000D+00  0.000000D+00  0.000000D+00  0.000000D+00  0.000000D+00
     29  0.000000D+00  0.000000D+00  0.000000D+00  0.000000D+00  0.000000D+00
     30  0.000000D+00  0.000000D+00  0.000000D+00  0.000000D+00  0.000000D+00
               21            22            23            24            25 
     21  0.150815D-01
     22  0.105443D-01  0.142227D-01
     23 -0.337903D-02 -0.702802D-02  0.135575D-01
     24 -0.791619D-02 -0.334969D-02  0.990854D-02  0.144750D-01
     25 -0.337903D-02 -0.702802D-02 -0.406844D-02 -0.771743D-02  0.135575D-01
     26 -0.791619D-02 -0.334969D-02 -0.771743D-02 -0.315093D-02  0.990854D-02
     27 -0.384281D-02  0.174840D-02 -0.171893D-02  0.387228D-02 -0.171893D-02
     28 -0.207528D-02  0.961950D-03 -0.631856D-03  0.240537D-02 -0.631856D-03
     29  0.798695D-03 -0.201453D-02  0.201398D-02 -0.799245D-03  0.201398D-02
     30  0.256623D-02 -0.280098D-02  0.310105D-02 -0.226615D-02  0.310105D-02
               26            27            28            29            30 
     26  0.144750D-01
     27  0.387228D-02  0.216896D-01
     28  0.240537D-02  0.526096D-03  0.189895D-01
     29 -0.799245D-03  0.159698D-01 -0.258098D-02  0.188478D-01
     30 -0.226615D-02 -0.519370D-02  0.158825D-01  0.296948D-03  0.213731D-01
 Leave Link  716 at Sat Feb 16 13:47:27 2019, MaxMem=   196608000 cpu:         0.6
 (Enter /cm/shared/c3ddb/gaussian/09.d01/g09/l103.exe)

 GradGradGradGradGradGradGradGradGradGradGradGradGradGradGradGradGradGrad
 Berny optimization.
 Red2BG is reusing G-inverse.
 Internal  Forces:  Max     0.012453298 RMS     0.004243574
 Search for a local minimum.
 Step number   1 out of a maximum of   40
 All quantities printed in internal units (Hartrees-Bohrs-Radians)
 RMS Force = .42436D-02 SwitMx=.10000D-02 MixMth= 1
 Mixed Optimization -- RFO/linear search
 Second derivative matrix not updated -- analytic derivatives used.
 ITU=  0
     Eigenvalues ---    0.00221   0.01973   0.03176   0.04023   0.06005
     Eigenvalues ---    0.06068   0.10705   0.11275   0.12500   0.13134
     Eigenvalues ---    0.14716   0.15305   0.18886   0.33214   0.33603
     Eigenvalues ---    0.33918   0.34621   0.35331   0.35913   0.36215
     Eigenvalues ---    0.63662
 RFO step:  Lambda=-1.56973720D-03 EMin= 2.21163859D-03
 Linear search not attempted -- first point.
 Iteration  1 RMS(Cart)=  0.02238791 RMS(Int)=  0.00013627
 Iteration  2 RMS(Cart)=  0.00013174 RMS(Int)=  0.00004894
 Iteration  3 RMS(Cart)=  0.00000003 RMS(Int)=  0.00004894
 ITry= 1 IFail=0 DXMaxC= 6.28D-02 DCOld= 1.00D+10 DXMaxT= 3.00D-01 DXLimC= 3.00D+00 Rises=F
 ClnCor:  largest displacement from symmetrization is 1.35D-08 for atom     8.
 Variable       Old X    -DE/DX   Delta X   Delta X   Delta X     New X
                                 (Linear)    (Quad)   (Total)
    R1        2.82219   0.01245   0.00000   0.03281   0.03281   2.85499
    R2        2.06851   0.00412   0.00000   0.01280   0.01280   2.08131
    R3        2.06783   0.00678   0.00000   0.01980   0.01980   2.08763
    R4        2.06783   0.00678   0.00000   0.01980   0.01980   2.08763
    R5        2.52955   0.01065   0.00000   0.01424   0.01424   2.54379
    R6        2.05562   0.00528   0.00000   0.01552   0.01552   2.07114
    R7        2.05175   0.00429   0.00000   0.01099   0.01099   2.06274
    R8        2.05147   0.00492   0.00000   0.01471   0.01471   2.06618
    A1        1.95794  -0.00300   0.00000  -0.01724  -0.01716   1.94078
    A2        1.91839   0.00399   0.00000   0.02116   0.02113   1.93952
    A3        1.91839   0.00399   0.00000   0.02116   0.02113   1.93952
    A4        1.88827  -0.00049   0.00000   0.00090   0.00098   1.88925
    A5        1.88827  -0.00049   0.00000   0.00090   0.00098   1.88925
    A6        1.89101  -0.00423   0.00000  -0.02819  -0.02833   1.86269
    A7        2.16686   0.00368   0.00000   0.00994   0.00994   2.17680
    A8        2.03671  -0.00265   0.00000  -0.01157  -0.01157   2.02514
    A9        2.07961  -0.00103   0.00000   0.00164   0.00164   2.08124
   A10        2.10759   0.00275   0.00000   0.01927   0.01927   2.12686
   A11        2.12504  -0.00120   0.00000  -0.00789  -0.00789   2.11715
   A12        2.05056  -0.00155   0.00000  -0.01138  -0.01138   2.03918
    D1        0.00000   0.00000   0.00000   0.00000   0.00000   0.00000
    D2        3.14159   0.00000   0.00000   0.00000   0.00000   3.14159
    D3       -2.10167  -0.00014   0.00000  -0.00427  -0.00418  -2.10585
    D4        1.03993  -0.00014   0.00000  -0.00427  -0.00418   1.03574
    D5        2.10167   0.00014   0.00000   0.00427   0.00418   2.10585
    D6       -1.03993   0.00014   0.00000   0.00427   0.00418  -1.03574
    D7       -3.14159   0.00000   0.00000   0.00000   0.00000   3.14159
    D8        0.00000   0.00000   0.00000   0.00000   0.00000   0.00000
    D9        0.00000   0.00000   0.00000   0.00000   0.00000   0.00000
   D10        3.14159   0.00000   0.00000   0.00000   0.00000  -3.14159
         Item               Value     Threshold  Converged?
 Maximum Force            0.012453     0.000450     NO 
 RMS     Force            0.004244     0.000300     NO 
 Maximum Displacement     0.062811     0.001800     NO 
 RMS     Displacement     0.022407     0.001200     NO 
 Predicted change in Energy=-7.893149D-04
 Lowest energy point so far.  Saving SCF results.
 GradGradGradGradGradGradGradGradGradGradGradGradGradGradGradGradGradGrad

 Leave Link  103 at Sat Feb 16 13:47:30 2019, MaxMem=   196608000 cpu:        13.6
 (Enter /cm/shared/c3ddb/gaussian/09.d01/g09/l202.exe)
                          Input orientation:                          
 ---------------------------------------------------------------------
 Center     Atomic      Atomic             Coordinates (Angstroms)
 Number     Number       Type             X           Y           Z
 ---------------------------------------------------------------------
      1          6           0       -1.109498    0.120837   -0.260047
      2          6           0        0.159487   -0.255987    0.468093
      3          6           0        1.403575    0.012820    0.029905
      4          1           0       -0.887090    0.647137   -1.201632
      5          1           0       -1.745147    0.776959    0.361141
      6          1           0       -1.712681   -0.773604   -0.497881
      7          1           0        0.029380   -0.785443    1.418861
      8          1           0        2.289722   -0.281755    0.595114
      9          1           0        1.572252    0.539035   -0.913555
 ---------------------------------------------------------------------
                    Distance matrix (angstroms):
                    1          2          3          4          5
     1  C    0.000000
     2  C    1.510797   0.000000
     3  C    2.532050   1.346113   0.000000
     4  H    1.101380   2.167704   2.676974   0.000000
     5  H    1.104726   2.169343   3.257004   1.787560   0.000000
     6  H    1.104726   2.169343   3.257004   1.787560   1.772913
     7  H    2.221963   1.095998   2.110648   3.123970   2.590139
     8  H    3.528184   2.134175   1.091555   3.766069   4.178013
     9  H    2.791728   2.130004   1.093377   2.478515   3.561824
                    6          7          8          9
     6  H    0.000000
     7  H    2.590139   0.000000
     8  H    4.178013   2.457928   0.000000
     9  H    3.561824   3.094327   1.861329   0.000000
 Stoichiometry    C3H6
 Framework group  CS[SG(C3H4),X(H2)]
 Deg. of freedom    14
 Full point group                 CS      NOp   2
 RotChk:  IX=3 Diff= 1.55D+00
 Largest Abelian subgroup         CS      NOp   2
 Largest concise Abelian subgroup CS      NOp   2
                         Standard orientation:                         
 ---------------------------------------------------------------------
 Center     Atomic      Atomic             Coordinates (Angstroms)
 Number     Number       Type             X           Y           Z
 ---------------------------------------------------------------------
      1          6           0       -1.147129    0.500962    0.000000
      2          6           0        0.000000   -0.482197    0.000000
      3          6           0        1.302172   -0.141068    0.000000
      4          1           0       -0.781296    1.539810    0.000000
      5          1           0       -1.791381    0.361127    0.886456
      6          1           0       -1.791381    0.361127   -0.886456
      7          1           0       -0.275648   -1.542966    0.000000
      8          1           0        2.094481   -0.891893    0.000000
      9          1           0        1.614971    0.906610    0.000000
 ---------------------------------------------------------------------
 Rotational constants (GHZ):     45.8798655      9.1569800      8.0170496
 Leave Link  202 at Sat Feb 16 13:47:30 2019, MaxMem=   196608000 cpu:         0.5
 (Enter /cm/shared/c3ddb/gaussian/09.d01/g09/l301.exe)
 Standard basis: 6-31G (6D, 7F)
 Ernie: Thresh=  0.10000D-02 Tol=  0.10000D-05 Strict=F.
 There are    31 symmetry adapted cartesian basis functions of A'  symmetry.
 There are     8 symmetry adapted cartesian basis functions of A"  symmetry.
 There are    31 symmetry adapted basis functions of A'  symmetry.
 There are     8 symmetry adapted basis functions of A"  symmetry.
    39 basis functions,    90 primitive gaussians,    39 cartesian basis functions
    12 alpha electrons       12 beta electrons
       nuclear repulsion energy        70.1460341544 Hartrees.
 IExCor= 3630 DFT=T Ex+Corr=B97D ExCW=0 ScaHFX=  0.000000
 ScaDFX=  1.000000  1.000000  1.000000  1.000000 ScalE2=  1.000000  1.000000
 IRadAn=      0 IRanWt=     -1 IRanGd=            0 ICorTp=0 IEmpDi=121
 NAtoms=    9 NActive=    9 NUniq=    8 SFac= 1.27D+00 NAtFMM=   60 NAOKFM=F Big=F
 Integral buffers will be    131072 words long.
 Raffenetti 2 integral format.
 Two-electron integral symmetry is turned on.
 R6Disp:  Grimme-D2 Dispersion energy=       -0.0053753336 Hartrees.
 Nuclear repulsion after empirical dispersion term =       70.1406588208 Hartrees.
 Leave Link  301 at Sat Feb 16 13:47:30 2019, MaxMem=   196608000 cpu:         0.9
 (Enter /cm/shared/c3ddb/gaussian/09.d01/g09/l302.exe)
 NPDir=0 NMtPBC=     1 NCelOv=     1 NCel=       1 NClECP=     1 NCelD=      1
         NCelK=      1 NCelE2=     1 NClLst=     1 CellRange=     0.0.
 One-electron integrals computed using PRISM.
 One-electron integral symmetry used in STVInt
 NBasis=    39 RedAO= T EigKep=  9.31D-03  NBF=    31     8
 NBsUse=    39 1.00D-06 EigRej= -1.00D+00 NBFU=    31     8
 Precomputing XC quadrature grid using
 IXCGrd= 4 IRadAn=           0 IRanWt=          -1 IRanGd=           0 AccXCQ= 0.00D+00.
 Generated NRdTot=       0 NPtTot=           0 NUsed=           0 NTot=          32
 NSgBfM=    39    39    39    39    39 MxSgAt=     9 MxSgA2=     9.
 Leave Link  302 at Sat Feb 16 13:47:31 2019, MaxMem=   196608000 cpu:         4.1
 (Enter /cm/shared/c3ddb/gaussian/09.d01/g09/l303.exe)
 DipDrv:  MaxL=1.
 Leave Link  303 at Sat Feb 16 13:47:31 2019, MaxMem=   196608000 cpu:         0.5
 (Enter /cm/shared/c3ddb/gaussian/09.d01/g09/l401.exe)
 Initial guess from the checkpoint file:  "check.chk"
 B after Tr=     0.000000    0.000000    0.000000
         Rot=    0.837325    0.000000    0.000000   -0.546706 Ang= -66.28 deg.
 Guess basis will be translated and rotated to current coordinates.
 JPrj=2 DoOrth=T DoCkMO=T.
 Initial guess orbital symmetries:
       Occupied  (A') (A') (A') (A') (A') (A') (A') (A') (A") (A')
                 (A') (A")
       Virtual   (A') (A') (A') (A') (A') (A') (A') (A') (A') (A')
                 (A') (A') (A') (A') (A') (A') (A') (A') (A') (A')
                 (A') (A") (A") (A") (A") (A") (A")
 The electronic state of the initial guess is 1-A'.
 Generating alternative initial guess.
 ExpMin= 1.61D-01 ExpMax= 3.05D+03 ExpMxC= 4.57D+02 IAcc=1 IRadAn=         1 AccDes= 0.00D+00
 Harris functional with IExCor= 3630 and IRadAn=       1 diagonalized for initial guess.
 HarFok:  IExCor= 3630 AccDes= 0.00D+00 IRadAn=         1 IDoV= 1 UseB2=F ITyADJ=14
 ICtDFT=  3500011 ScaDFX=  1.000000  1.000000  1.000000  1.000000
 FoFCou: FMM=F IPFlag=           0 FMFlag=      100000 FMFlg1=           0
         NFxFlg=           0 DoJE=T BraDBF=F KetDBF=T FulRan=T
         wScrn=  0.000000 ICntrl=     500 IOpCl=  0 I1Cent=   200000004 NGrid=           0
         NMat0=    1 NMatS0=      1 NMatT0=    0 NMatD0=    1 NMtDS0=    0 NMtDT0=    0
 Petite list used in FoFCou.
 Harris En= -117.885888996678    
 Leave Link  401 at Sat Feb 16 13:47:33 2019, MaxMem=   196608000 cpu:        12.1
 (Enter /cm/shared/c3ddb/gaussian/09.d01/g09/l502.exe)
 Closed shell SCF:
 Using DIIS extrapolation, IDIIS=  1040.
 Integral symmetry usage will be decided dynamically.
 Keep J ints in memory in symmetry-blocked form, NReq=1178578.
 IVT=       11193 IEndB=       11193 NGot=   196608000 MDV=   196422111
 LenX=   196422111 LenY=   196420149
 Requested convergence on RMS density matrix=1.00D-08 within  64 cycles.
 Requested convergence on MAX density matrix=1.00D-06.
 Requested convergence on             energy=1.00D-06.
 No special actions if energy rises.
 FoFCou: FMM=F IPFlag=           0 FMFlag=           0 FMFlg1=           0
         NFxFlg=           0 DoJE=F BraDBF=F KetDBF=F FulRan=T
         wScrn=  0.000000 ICntrl=     600 IOpCl=  0 I1Cent=           0 NGrid=           0
         NMat0=    1 NMatS0=    780 NMatT0=    0 NMatD0=    1 NMtDS0=    0 NMtDT0=    0
 Petite list used in FoFCou.
 Integral accuracy reduced to 1.0D-05 until final iterations.

 Cycle   1  Pass 0  IDiag  1:
 E= -117.796986511666    
 DIIS: error= 1.58D-03 at cycle   1 NSaved=   1.
 NSaved= 1 IEnMin= 1 EnMin= -117.796986511666     IErMin= 1 ErrMin= 1.58D-03
 ErrMax= 1.58D-03  0.00D+00 EMaxC= 1.00D-01 BMatC= 9.76D-05 BMatP= 9.76D-05
 IDIUse=3 WtCom= 9.84D-01 WtEn= 1.58D-02
 Coeff-Com:  0.100D+01
 Coeff-En:   0.100D+01
 Coeff:      0.100D+01
 Gap=     0.605 Goal=   None    Shift=    0.000
 GapD=    0.605 DampG=2.000 DampE=1.000 DampFc=2.0000 IDamp=-1.
 RMSDP=4.97D-04 MaxDP=4.48D-03              OVMax= 5.88D-03

 Cycle   2  Pass 0  IDiag  1:
 E= -117.797050106706     Delta-E=       -0.000063595040 Rises=F Damp=F
 DIIS: error= 1.36D-03 at cycle   2 NSaved=   2.
 NSaved= 2 IEnMin= 2 EnMin= -117.797050106706     IErMin= 2 ErrMin= 1.36D-03
 ErrMax= 1.36D-03  0.00D+00 EMaxC= 1.00D-01 BMatC= 7.14D-05 BMatP= 9.76D-05
 IDIUse=3 WtCom= 9.86D-01 WtEn= 1.36D-02
 Coeff-Com:  0.451D+00 0.549D+00
 Coeff-En:   0.272D+00 0.728D+00
 Coeff:      0.449D+00 0.551D+00
 Gap=     0.211 Goal=   None    Shift=    0.000
 RMSDP=3.13D-04 MaxDP=2.71D-03 DE=-6.36D-05 OVMax= 4.59D-03

 Cycle   3  Pass 0  IDiag  1:
 E= -117.797109196217     Delta-E=       -0.000059089511 Rises=F Damp=F
 DIIS: error= 7.39D-04 at cycle   3 NSaved=   3.
 NSaved= 3 IEnMin= 3 EnMin= -117.797109196217     IErMin= 3 ErrMin= 7.39D-04
 ErrMax= 7.39D-04  0.00D+00 EMaxC= 1.00D-01 BMatC= 1.86D-05 BMatP= 7.14D-05
 IDIUse=3 WtCom= 9.93D-01 WtEn= 7.39D-03
 Coeff-Com:  0.935D-01 0.335D+00 0.571D+00
 Coeff-En:   0.000D+00 0.227D+00 0.773D+00
 Coeff:      0.928D-01 0.335D+00 0.573D+00
 Gap=     0.211 Goal=   None    Shift=    0.000
 RMSDP=1.61D-04 MaxDP=1.92D-03 DE=-5.91D-05 OVMax= 4.39D-03

 Cycle   4  Pass 0  IDiag  1:
 E= -117.797121251628     Delta-E=       -0.000012055411 Rises=F Damp=F
 DIIS: error= 5.83D-04 at cycle   4 NSaved=   4.
 NSaved= 4 IEnMin= 4 EnMin= -117.797121251628     IErMin= 4 ErrMin= 5.83D-04
 ErrMax= 5.83D-04  0.00D+00 EMaxC= 1.00D-01 BMatC= 8.32D-06 BMatP= 1.86D-05
 IDIUse=3 WtCom= 9.94D-01 WtEn= 5.83D-03
 Coeff-Com:  0.167D-01 0.186D+00 0.440D+00 0.357D+00
 Coeff-En:   0.000D+00 0.000D+00 0.335D+00 0.665D+00
 Coeff:      0.166D-01 0.184D+00 0.440D+00 0.359D+00
 Gap=     0.211 Goal=   None    Shift=    0.000
 RMSDP=6.71D-05 MaxDP=9.47D-04 DE=-1.21D-05 OVMax= 1.95D-03

 Cycle   5  Pass 0  IDiag  1:
 E= -117.797131063186     Delta-E=       -0.000009811557 Rises=F Damp=F
 DIIS: error= 2.06D-05 at cycle   5 NSaved=   5.
 NSaved= 5 IEnMin= 5 EnMin= -117.797131063186     IErMin= 5 ErrMin= 2.06D-05
 ErrMax= 2.06D-05  0.00D+00 EMaxC= 1.00D-01 BMatC= 1.66D-08 BMatP= 8.32D-06
 IDIUse=1 WtCom= 1.00D+00 WtEn= 0.00D+00
 Coeff-Com:  0.262D-02 0.504D-01 0.132D+00 0.111D+00 0.704D+00
 Coeff:      0.262D-02 0.504D-01 0.132D+00 0.111D+00 0.704D+00
 Gap=     0.211 Goal=   None    Shift=    0.000
 RMSDP=5.47D-06 MaxDP=3.90D-05 DE=-9.81D-06 OVMax= 5.11D-05

 Initial convergence to 1.0D-05 achieved.  Increase integral accuracy.
 Cycle   6  Pass 1  IDiag  1:
 E= -117.797145475488     Delta-E=       -0.000014412303 Rises=F Damp=F
 DIIS: error= 1.17D-05 at cycle   1 NSaved=   1.
 NSaved= 1 IEnMin= 1 EnMin= -117.797145475488     IErMin= 1 ErrMin= 1.17D-05
 ErrMax= 1.17D-05  0.00D+00 EMaxC= 1.00D-01 BMatC= 1.01D-08 BMatP= 1.01D-08
 IDIUse=1 WtCom= 1.00D+00 WtEn= 0.00D+00
 Coeff-Com:  0.100D+01
 Coeff:      0.100D+01
 Gap=     0.211 Goal=   None    Shift=    0.000
 RMSDP=5.47D-06 MaxDP=3.90D-05 DE=-1.44D-05 OVMax= 3.98D-05

 Cycle   7  Pass 1  IDiag  1:
 E= -117.797145479574     Delta-E=       -0.000000004085 Rises=F Damp=F
 DIIS: error= 1.39D-05 at cycle   2 NSaved=   2.
 NSaved= 2 IEnMin= 2 EnMin= -117.797145479574     IErMin= 1 ErrMin= 1.17D-05
 ErrMax= 1.39D-05  0.00D+00 EMaxC= 1.00D-01 BMatC= 7.95D-09 BMatP= 1.01D-08
 IDIUse=1 WtCom= 1.00D+00 WtEn= 0.00D+00
 Coeff-Com:  0.464D+00 0.536D+00
 Coeff:      0.464D+00 0.536D+00
 Gap=     0.211 Goal=   None    Shift=    0.000
 RMSDP=2.91D-06 MaxDP=2.66D-05 DE=-4.09D-09 OVMax= 3.50D-05

 Cycle   8  Pass 1  IDiag  1:
 E= -117.797145486918     Delta-E=       -0.000000007344 Rises=F Damp=F
 DIIS: error= 6.66D-06 at cycle   3 NSaved=   3.
 NSaved= 3 IEnMin= 3 EnMin= -117.797145486918     IErMin= 3 ErrMin= 6.66D-06
 ErrMax= 6.66D-06  0.00D+00 EMaxC= 1.00D-01 BMatC= 1.14D-09 BMatP= 7.95D-09
 IDIUse=1 WtCom= 1.00D+00 WtEn= 0.00D+00
 Coeff-Com:  0.572D-01 0.279D+00 0.664D+00
 Coeff:      0.572D-01 0.279D+00 0.664D+00
 Gap=     0.211 Goal=   None    Shift=    0.000
 RMSDP=1.21D-06 MaxDP=1.66D-05 DE=-7.34D-09 OVMax= 3.44D-05

 Cycle   9  Pass 1  IDiag  1:
 E= -117.797145487421     Delta-E=       -0.000000000503 Rises=F Damp=F
 DIIS: error= 5.24D-06 at cycle   4 NSaved=   4.
 NSaved= 4 IEnMin= 4 EnMin= -117.797145487421     IErMin= 4 ErrMin= 5.24D-06
 ErrMax= 5.24D-06  0.00D+00 EMaxC= 1.00D-01 BMatC= 6.40D-10 BMatP= 1.14D-09
 IDIUse=1 WtCom= 1.00D+00 WtEn= 0.00D+00
 Coeff-Com:  0.138D-02 0.166D+00 0.512D+00 0.320D+00
 Coeff:      0.138D-02 0.166D+00 0.512D+00 0.320D+00
 Gap=     0.211 Goal=   None    Shift=    0.000
 RMSDP=6.09D-07 MaxDP=8.09D-06 DE=-5.03D-10 OVMax= 1.71D-05

 Cycle  10  Pass 1  IDiag  1:
 E= -117.797145488189     Delta-E=       -0.000000000768 Rises=F Damp=F
 DIIS: error= 2.07D-07 at cycle   5 NSaved=   5.
 NSaved= 5 IEnMin= 5 EnMin= -117.797145488189     IErMin= 5 ErrMin= 2.07D-07
 ErrMax= 2.07D-07  0.00D+00 EMaxC= 1.00D-01 BMatC= 1.43D-12 BMatP= 6.40D-10
 IDIUse=1 WtCom= 1.00D+00 WtEn= 0.00D+00
 Coeff-Com: -0.839D-03 0.629D-01 0.199D+00 0.120D+00 0.618D+00
 Coeff:     -0.839D-03 0.629D-01 0.199D+00 0.120D+00 0.618D+00
 Gap=     0.211 Goal=   None    Shift=    0.000
 RMSDP=5.21D-08 MaxDP=3.90D-07 DE=-7.68D-10 OVMax= 5.31D-07

 Cycle  11  Pass 1  IDiag  1:
 E= -117.797145488190     Delta-E=       -0.000000000001 Rises=F Damp=F
 DIIS: error= 7.44D-08 at cycle   6 NSaved=   6.
 NSaved= 6 IEnMin= 6 EnMin= -117.797145488190     IErMin= 6 ErrMin= 7.44D-08
 ErrMax= 7.44D-08  0.00D+00 EMaxC= 1.00D-01 BMatC= 2.25D-13 BMatP= 1.43D-12
 IDIUse=1 WtCom= 1.00D+00 WtEn= 0.00D+00
 Coeff-Com: -0.372D-03 0.135D-01 0.440D-01 0.241D-01 0.312D+00 0.606D+00
 Coeff:     -0.372D-03 0.135D-01 0.440D-01 0.241D-01 0.312D+00 0.606D+00
 Gap=     0.211 Goal=   None    Shift=    0.000
 RMSDP=1.54D-08 MaxDP=9.91D-08 DE=-1.48D-12 OVMax= 1.50D-07

 Cycle  12  Pass 1  IDiag  1:
 E= -117.797145488191     Delta-E=        0.000000000000 Rises=F Damp=F
 DIIS: error= 1.44D-08 at cycle   7 NSaved=   7.
 NSaved= 7 IEnMin= 7 EnMin= -117.797145488191     IErMin= 7 ErrMin= 1.44D-08
 ErrMax= 1.44D-08  0.00D+00 EMaxC= 1.00D-01 BMatC= 4.36D-15 BMatP= 2.25D-13
 IDIUse=1 WtCom= 1.00D+00 WtEn= 0.00D+00
 Coeff-Com: -0.939D-04 0.232D-02 0.750D-02 0.507D-02 0.783D-01 0.187D+00
 Coeff-Com:  0.720D+00
 Coeff:     -0.939D-04 0.232D-02 0.750D-02 0.507D-02 0.783D-01 0.187D+00
 Coeff:      0.720D+00
 Gap=     0.211 Goal=   None    Shift=    0.000
 RMSDP=3.37D-09 MaxDP=2.31D-08 DE=-3.98D-13 OVMax= 5.95D-08

 SCF Done:  E(RB97D) =  -117.797145488     A.U. after   12 cycles
            NFock= 12  Conv=0.34D-08     -V/T= 2.0057
 KE= 1.171291293646D+02 PE=-4.128857343785D+02 EE= 1.078188007049D+02
 Leave Link  502 at Sat Feb 16 13:47:38 2019, MaxMem=   196608000 cpu:        35.8
 (Enter /cm/shared/c3ddb/gaussian/09.d01/g09/l508.exe)
 QCSCF skips out because SCF is already converged.
 Leave Link  508 at Sat Feb 16 13:47:38 2019, MaxMem=   196608000 cpu:         0.0
 (Enter /cm/shared/c3ddb/gaussian/09.d01/g09/l701.exe)
 Compute integral first derivatives.
 ... and contract with generalized density number  0.
 R6Disp: Adding Grimme-D2 dispersion energy 1st derivatives to the gradient.
 Leave Link  701 at Sat Feb 16 13:47:39 2019, MaxMem=   196608000 cpu:         2.9
 (Enter /cm/shared/c3ddb/gaussian/09.d01/g09/l702.exe)
 L702 exits ... SP integral derivatives will be done elsewhere.
 Leave Link  702 at Sat Feb 16 13:47:39 2019, MaxMem=   196608000 cpu:         0.1
 (Enter /cm/shared/c3ddb/gaussian/09.d01/g09/l703.exe)
 Compute integral first derivatives, UseDBF=F ICtDFT=           0.
 Integral derivatives from FoFJK, PRISM(SPDF).
 Calling FoFJK, ICntrl=      2527 FMM=F ISym2X=1 I1Cent= 0 IOpClX= 0 NMat=1 NMatS=1 NMatT=0.
 FoFJK:  IHMeth= 1 ICntrl=    2527 DoSepK=F KAlg= 0 I1Cent=   0 FoldK=F
 IRaf=         0 NMat=   1 IRICut=       1 DoRegI=T DoRafI=F ISym2E= 1.
 FoFCou: FMM=F IPFlag=           0 FMFlag=      100000 FMFlg1=         800
         NFxFlg=           0 DoJE=F BraDBF=F KetDBF=F FulRan=T
         wScrn=  0.000000 ICntrl=    2527 IOpCl=  0 I1Cent=           0 NGrid=           0
         NMat0=    1 NMatS0=      1 NMatT0=    0 NMatD0=    1 NMtDS0=    0 NMtDT0=    0
 Petite list used in FoFCou.
 Leave Link  703 at Sat Feb 16 13:47:40 2019, MaxMem=   196608000 cpu:         3.3
 (Enter /cm/shared/c3ddb/gaussian/09.d01/g09/l716.exe)
 Dipole        =-1.52791882D-01 8.98409453D-03 2.35995243D-16
 ***** Axes restored to original set *****
 -------------------------------------------------------------------
 Center     Atomic                   Forces (Hartrees/Bohr)
 Number     Number              X              Y              Z
 -------------------------------------------------------------------
      1        6          -0.000271476    0.000061160   -0.000120656
      2        6           0.000409068   -0.000016524    0.000045287
      3        6           0.000118260   -0.000072816    0.000135904
      4        1          -0.000004380    0.000041383   -0.000074863
      5        1          -0.000198657    0.000141854    0.000082205
      6        1          -0.000192521   -0.000151187   -0.000080142
      7        1          -0.000041705   -0.000067549    0.000120352
      8        1           0.000111008   -0.000007211    0.000017211
      9        1           0.000070403    0.000070891   -0.000125299
 -------------------------------------------------------------------
 Cartesian Forces:  Max     0.000409068 RMS     0.000135890
 Leave Link  716 at Sat Feb 16 13:47:40 2019, MaxMem=   196608000 cpu:         0.1
 (Enter /cm/shared/c3ddb/gaussian/09.d01/g09/l103.exe)

 GradGradGradGradGradGradGradGradGradGradGradGradGradGradGradGradGradGrad
 Berny optimization.
 Using GEDIIS/GDIIS optimizer.
 FormGI is forming the generalized inverse of G from B-inverse, IUseBI=4.
 Internal  Forces:  Max     0.000676727 RMS     0.000167720
 Search for a local minimum.
 Step number   2 out of a maximum of   40
 All quantities printed in internal units (Hartrees-Bohrs-Radians)
 RMS Force = .16772D-03 SwitMx=.10000D-02 MixMth= 2
 Mixed Optimization -- En-DIIS/RFO-DIIS
 Update second derivatives using D2CorX and points    1    2
 DE= -8.03D-04 DEPred=-7.89D-04 R= 1.02D+00
 TightC=F SS=  1.41D+00  RLast= 7.53D-02 DXNew= 5.0454D-01 2.2580D-01
 Trust test= 1.02D+00 RLast= 7.53D-02 DXMaxT set to 3.00D-01
 ITU=  1  0
 Use linear search instead of GDIIS.
     Eigenvalues ---    0.00221   0.01973   0.03176   0.04023   0.06005
     Eigenvalues ---    0.06072   0.10701   0.11272   0.12568   0.13131
     Eigenvalues ---    0.14716   0.15329   0.18834   0.33114   0.33603
     Eigenvalues ---    0.33662   0.33946   0.35331   0.35891   0.36214
     Eigenvalues ---    0.63484
 RFO step:  Lambda=-6.25624567D-07 EMin= 2.21163856D-03
 Quartic linear search produced a step of  0.03704.
 Iteration  1 RMS(Cart)=  0.00121513 RMS(Int)=  0.00000182
 Iteration  2 RMS(Cart)=  0.00000036 RMS(Int)=  0.00000180
 ITry= 1 IFail=0 DXMaxC= 3.71D-03 DCOld= 1.00D+10 DXMaxT= 3.00D-01 DXLimC= 3.00D+00 Rises=F
 ClnCor:  largest displacement from symmetrization is 7.94D-09 for atom     9.
 Variable       Old X    -DE/DX   Delta X   Delta X   Delta X     New X
                                 (Linear)    (Quad)   (Total)
    R1        2.85499   0.00068   0.00122   0.00080   0.00201   2.85701
    R2        2.08131   0.00008   0.00047  -0.00017   0.00030   2.08161
    R3        2.08763   0.00024   0.00073   0.00000   0.00074   2.08837
    R4        2.08763   0.00024   0.00073   0.00000   0.00074   2.08837
    R5        2.54379   0.00027   0.00053  -0.00023   0.00030   2.54408
    R6        2.07114   0.00014   0.00057  -0.00009   0.00048   2.07162
    R7        2.06274   0.00010   0.00041  -0.00011   0.00030   2.06304
    R8        2.06618   0.00015   0.00054  -0.00006   0.00048   2.06667
    A1        1.94078  -0.00001  -0.00064   0.00052  -0.00011   1.94067
    A2        1.93952   0.00009   0.00078  -0.00040   0.00038   1.93990
    A3        1.93952   0.00009   0.00078  -0.00040   0.00038   1.93990
    A4        1.88925  -0.00005   0.00004  -0.00020  -0.00016   1.88909
    A5        1.88925  -0.00005   0.00004  -0.00020  -0.00016   1.88909
    A6        1.86269  -0.00009  -0.00105   0.00069  -0.00036   1.86232
    A7        2.17680   0.00025   0.00037   0.00078   0.00115   2.17795
    A8        2.02514  -0.00015  -0.00043  -0.00054  -0.00097   2.02417
    A9        2.08124  -0.00010   0.00006  -0.00023  -0.00017   2.08107
   A10        2.12686   0.00004   0.00071  -0.00050   0.00021   2.12707
   A11        2.11715   0.00003  -0.00029   0.00069   0.00039   2.11754
   A12        2.03918  -0.00007  -0.00042  -0.00018  -0.00061   2.03857
    D1        0.00000   0.00000   0.00000   0.00000   0.00000   0.00000
    D2       -3.14159   0.00000   0.00000   0.00000   0.00000   3.14159
    D3       -2.10585   0.00001  -0.00015   0.00017   0.00002  -2.10583
    D4        1.03574   0.00001  -0.00015   0.00017   0.00002   1.03577
    D5        2.10585  -0.00001   0.00015  -0.00017  -0.00002   2.10583
    D6       -1.03574  -0.00001   0.00015  -0.00017  -0.00002  -1.03577
    D7       -3.14159   0.00000   0.00000   0.00000   0.00000  -3.14159
    D8        0.00000   0.00000   0.00000   0.00000   0.00000   0.00000
    D9        0.00000   0.00000   0.00000   0.00000   0.00000   0.00000
   D10        3.14159   0.00000   0.00000   0.00000   0.00000   3.14159
         Item               Value     Threshold  Converged?
 Maximum Force            0.000677     0.000450     NO 
 RMS     Force            0.000168     0.000300     YES
 Maximum Displacement     0.003707     0.001800     NO 
 RMS     Displacement     0.001215     0.001200     NO 
 Predicted change in Energy=-1.285418D-06
 Lowest energy point so far.  Saving SCF results.
 GradGradGradGradGradGradGradGradGradGradGradGradGradGradGradGradGradGrad

 Leave Link  103 at Sat Feb 16 13:47:41 2019, MaxMem=   196608000 cpu:         8.5
 (Enter /cm/shared/c3ddb/gaussian/09.d01/g09/l202.exe)
                          Input orientation:                          
 ---------------------------------------------------------------------
 Center     Atomic      Atomic             Coordinates (Angstroms)
 Number     Number       Type             X           Y           Z
 ---------------------------------------------------------------------
      1          6           0       -1.110354    0.120868   -0.260136
      2          6           0        0.160073   -0.255803    0.467783
      3          6           0        1.404552    0.012749    0.030071
      4          1           0       -0.888511    0.647295   -1.201970
      5          1           0       -1.746352    0.777060    0.361315
      6          1           0       -1.713880   -0.773843   -0.497895
      7          1           0        0.029601   -0.785367    1.418734
      8          1           0        2.290657   -0.281988    0.595570
      9          1           0        1.574213    0.539030   -0.913472
 ---------------------------------------------------------------------
                    Distance matrix (angstroms):
                    1          2          3          4          5
[...]

 SCF Done:  E(RB97D) =  -117.797146826     A.U. after    8 cycles
            NFock=  8  Conv=0.19D-08     -V/T= 2.0057
 KE= 1.171245836674D+02 PE=-4.128236241428D+02 EE= 1.077904528235D+02
 Leave Link  502 at Sat Feb 16 13:47:47 2019, MaxMem=   196608000 cpu:        24.8
 (Enter /cm/shared/c3ddb/gaussian/09.d01/g09/l508.exe)
 QCSCF skips out because SCF is already converged.
 Leave Link  508 at Sat Feb 16 13:47:47 2019, MaxMem=   196608000 cpu:         0.0
 (Enter /cm/shared/c3ddb/gaussian/09.d01/g09/l701.exe)
 Compute integral first derivatives.
 ... and contract with generalized density number  0.
 R6Disp: Adding Grimme-D2 dispersion energy 1st derivatives to the gradient.
 Leave Link  701 at Sat Feb 16 13:47:47 2019, MaxMem=   196608000 cpu:         2.6
 (Enter /cm/shared/c3ddb/gaussian/09.d01/g09/l702.exe)
 L702 exits ... SP integral derivatives will be done elsewhere.
 Leave Link  702 at Sat Feb 16 13:47:47 2019, MaxMem=   196608000 cpu:         0.2
 (Enter /cm/shared/c3ddb/gaussian/09.d01/g09/l703.exe)
 Compute integral first derivatives, UseDBF=F ICtDFT=           0.
 Integral derivatives from FoFJK, PRISM(SPDF).
 Calling FoFJK, ICntrl=      2527 FMM=F ISym2X=1 I1Cent= 0 IOpClX= 0 NMat=1 NMatS=1 NMatT=0.
 FoFJK:  IHMeth= 1 ICntrl=    2527 DoSepK=F KAlg= 0 I1Cent=   0 FoldK=F
 IRaf=         0 NMat=   1 IRICut=       1 DoRegI=T DoRafI=F ISym2E= 1.
 FoFCou: FMM=F IPFlag=           0 FMFlag=      100000 FMFlg1=         800
         NFxFlg=           0 DoJE=F BraDBF=F KetDBF=F FulRan=T
         wScrn=  0.000000 ICntrl=    2527 IOpCl=  0 I1Cent=           0 NGrid=           0
         NMat0=    1 NMatS0=      1 NMatT0=    0 NMatD0=    1 NMtDS0=    0 NMtDT0=    0
 Petite list used in FoFCou.
 Leave Link  703 at Sat Feb 16 13:47:48 2019, MaxMem=   196608000 cpu:         3.5
 (Enter /cm/shared/c3ddb/gaussian/09.d01/g09/l716.exe)
 Dipole        =-1.52477297D-01 9.24444682D-03 5.04556996D-16
 ***** Axes restored to original set *****
 -------------------------------------------------------------------
 Center     Atomic                   Forces (Hartrees/Bohr)
 Number     Number              X              Y              Z
 -------------------------------------------------------------------
      1        6          -0.000032401    0.000009338   -0.000018080
      2        6           0.000024298   -0.000011273    0.000021267
      3        6           0.000006072    0.000002990   -0.000005168
      4        1          -0.000005563   -0.000002307    0.000003953
      5        1           0.000007023    0.000003517   -0.000000629
      6        1           0.000007120   -0.000001106   -0.000003190
      7        1           0.000004111    0.000002615   -0.000004565
      8        1          -0.000007322   -0.000001345    0.000002152
      9        1          -0.000003339   -0.000002430    0.000004259
 -------------------------------------------------------------------
 Cartesian Forces:  Max     0.000032401 RMS     0.000010580
 Leave Link  716 at Sat Feb 16 13:47:48 2019, MaxMem=   196608000 cpu:         0.2
 (Enter /cm/shared/c3ddb/gaussian/09.d01/g09/l103.exe)

 GradGradGradGradGradGradGradGradGradGradGradGradGradGradGradGradGradGrad
 Berny optimization.
 Using GEDIIS/GDIIS optimizer.
 FormGI is forming the generalized inverse of G from B-inverse, IUseBI=4.
 Internal  Forces:  Max     0.000030969 RMS     0.000006899
 Search for a local minimum.
 Step number   3 out of a maximum of   40
 All quantities printed in internal units (Hartrees-Bohrs-Radians)
 RMS Force = .68994D-05 SwitMx=.10000D-02 MixMth= 2
 Mixed Optimization -- En-DIIS/RFO-DIIS
 Swapping is turned off.
 Update second derivatives using D2CorX and points    1    2    3
 DE= -1.34D-06 DEPred=-1.29D-06 R= 1.04D+00
 TightC=F SS=  1.41D+00  RLast= 3.04D-03 DXNew= 5.0454D-01 9.1136D-03
 Trust test= 1.04D+00 RLast= 3.04D-03 DXMaxT set to 3.00D-01
 ITU=  1  1  0
     Eigenvalues ---    0.00221   0.01973   0.03176   0.04023   0.06005
     Eigenvalues ---    0.06072   0.10719   0.11266   0.12566   0.13152
     Eigenvalues ---    0.14716   0.15323   0.18907   0.31653   0.33561
     Eigenvalues ---    0.33603   0.33937   0.35348   0.35945   0.36213
     Eigenvalues ---    0.63592
 En-DIIS/RFO-DIIS IScMMF=        0 using points:     3    2
 RFO step:  Lambda=-2.92005149D-09.
 NNeg= 0 NP= 2 Switch=  2.50D-03 Rises=F DC=  1.34D-06 SmlDif=  1.00D-05
 RMS Error=  0.1469106088D-04 NUsed= 2 EDIIS=F
 DidBck=F Rises=F RFO-DIIS coefs:    1.01434   -0.01434
 Iteration  1 RMS(Cart)=  0.00004239 RMS(Int)=  0.00000001
 Iteration  2 RMS(Cart)=  0.00000000 RMS(Int)=  0.00000001
 ITry= 1 IFail=0 DXMaxC= 1.36D-04 DCOld= 1.00D+10 DXMaxT= 3.00D-01 DXLimC= 3.00D+00 Rises=F
 ClnCor:  largest displacement from symmetrization is 1.35D-08 for atom     8.
 Variable       Old X    -DE/DX   Delta X   Delta X   Delta X     New X
                                 (Linear)    (Quad)   (Total)
    R1        2.85701   0.00003   0.00003   0.00008   0.00011   2.85712
    R2        2.08161  -0.00001   0.00000  -0.00002  -0.00002   2.08159
    R3        2.08837   0.00000   0.00001  -0.00002  -0.00001   2.08836
    R4        2.08837   0.00000   0.00001  -0.00002  -0.00001   2.08836
    R5        2.54408   0.00000   0.00000  -0.00001  -0.00001   2.54408
    R6        2.07162  -0.00001   0.00001  -0.00002  -0.00002   2.07160
    R7        2.06304   0.00000   0.00000  -0.00002  -0.00001   2.06303
    R8        2.06667  -0.00001   0.00001  -0.00002  -0.00002   2.06665
    A1        1.94067   0.00001   0.00000   0.00002   0.00002   1.94069
    A2        1.93990  -0.00001   0.00001  -0.00005  -0.00004   1.93986
    A3        1.93990  -0.00001   0.00001  -0.00005  -0.00004   1.93986
    A4        1.88909   0.00000   0.00000  -0.00001  -0.00001   1.88907
    A5        1.88909   0.00000   0.00000  -0.00001  -0.00001   1.88907
    A6        1.86232   0.00001  -0.00001   0.00011   0.00010   1.86243
    A7        2.17795   0.00000   0.00002  -0.00001   0.00001   2.17796
    A8        2.02417   0.00000  -0.00001   0.00002   0.00001   2.02418
    A9        2.08107   0.00000   0.00000  -0.00001  -0.00002   2.08105
   A10        2.12707  -0.00001   0.00000  -0.00006  -0.00006   2.12701
   A11        2.11754   0.00000   0.00001   0.00000   0.00001   2.11755
   A12        2.03857   0.00001  -0.00001   0.00006   0.00005   2.03863
    D1        0.00000   0.00000   0.00000   0.00000   0.00000   0.00000
    D2        3.14159   0.00000   0.00000   0.00000   0.00000   3.14159
    D3       -2.10583   0.00000   0.00000   0.00004   0.00004  -2.10579
    D4        1.03577   0.00000   0.00000   0.00004   0.00004   1.03580
    D5        2.10583   0.00000   0.00000  -0.00004  -0.00004   2.10579
    D6       -1.03577   0.00000   0.00000  -0.00004  -0.00004  -1.03580
    D7        3.14159   0.00000   0.00000   0.00000   0.00000   3.14159
    D8        0.00000   0.00000   0.00000   0.00000   0.00000   0.00000
    D9        0.00000   0.00000   0.00000   0.00000   0.00000   0.00000
   D10        3.14159   0.00000   0.00000   0.00000   0.00000   3.14159
         Item               Value     Threshold  Converged?
 Maximum Force            0.000031     0.000450     YES
 RMS     Force            0.000007     0.000300     YES
 Maximum Displacement     0.000136     0.001800     YES
 RMS     Displacement     0.000042     0.001200     YES
 Predicted change in Energy=-3.237409D-09
 Optimization completed.
    -- Stationary point found.
                           ----------------------------
                           !   Optimized Parameters   !
                           ! (Angstroms and Degrees)  !
 --------------------------                            --------------------------
 ! Name  Definition              Value          Derivative Info.                !
 --------------------------------------------------------------------------------
 ! R1    R(1,2)                  1.5119         -DE/DX =    0.0                 !
 ! R2    R(1,4)                  1.1015         -DE/DX =    0.0                 !
 ! R3    R(1,5)                  1.1051         -DE/DX =    0.0                 !
 ! R4    R(1,6)                  1.1051         -DE/DX =    0.0                 !
 ! R5    R(2,3)                  1.3463         -DE/DX =    0.0                 !
 ! R6    R(2,7)                  1.0963         -DE/DX =    0.0                 !
 ! R7    R(3,8)                  1.0917         -DE/DX =    0.0                 !
 ! R8    R(3,9)                  1.0936         -DE/DX =    0.0                 !
 ! A1    A(2,1,4)              111.1923         -DE/DX =    0.0                 !
 ! A2    A(2,1,5)              111.1483         -DE/DX =    0.0                 !
 ! A3    A(2,1,6)              111.1483         -DE/DX =    0.0                 !
 ! A4    A(4,1,5)              108.2368         -DE/DX =    0.0                 !
 ! A5    A(4,1,6)              108.2368         -DE/DX =    0.0                 !
 ! A6    A(5,1,6)              106.7033         -DE/DX =    0.0                 !
 ! A7    A(1,2,3)              124.7872         -DE/DX =    0.0                 !
 ! A8    A(1,2,7)              115.9763         -DE/DX =    0.0                 !
 ! A9    A(3,2,7)              119.2365         -DE/DX =    0.0                 !
 ! A10   A(2,3,8)              121.8722         -DE/DX =    0.0                 !
 ! A11   A(2,3,9)              121.3262         -DE/DX =    0.0                 !
 ! A12   A(8,3,9)              116.8016         -DE/DX =    0.0                 !
 ! D1    D(4,1,2,3)              0.0            -DE/DX =    0.0                 !
 ! D2    D(4,1,2,7)            180.0            -DE/DX =    0.0                 !
 ! D3    D(5,1,2,3)           -120.655          -DE/DX =    0.0                 !
 ! D4    D(5,1,2,7)             59.345          -DE/DX =    0.0                 !
 ! D5    D(6,1,2,3)            120.655          -DE/DX =    0.0                 !
 ! D6    D(6,1,2,7)            -59.345          -DE/DX =    0.0                 !
 ! D7    D(1,2,3,8)            180.0            -DE/DX =    0.0                 !
 ! D8    D(1,2,3,9)              0.0            -DE/DX =    0.0                 !
 ! D9    D(7,2,3,8)              0.0            -DE/DX =    0.0                 !
 ! D10   D(7,2,3,9)            180.0            -DE/DX =    0.0                 !
 --------------------------------------------------------------------------------
 Lowest energy point so far.  Saving SCF results.
 GradGradGradGradGradGradGradGradGradGradGradGradGradGradGradGradGradGrad

 Largest change from initial coordinates is atom    8       2.014 Angstoms.
 Leave Link  103 at Sat Feb 16 13:47:50 2019, MaxMem=   196608000 cpu:        14.3
 (Enter /cm/shared/c3ddb/gaussian/09.d01/g09/l202.exe)
                          Input orientation:                          
 ---------------------------------------------------------------------
 Center     Atomic      Atomic             Coordinates (Angstroms)
 Number     Number       Type             X           Y           Z
 ---------------------------------------------------------------------
      1          6           0       -1.110354    0.120868   -0.260136
      2          6           0        0.160073   -0.255803    0.467783
      3          6           0        1.404552    0.012749    0.030071
      4          1           0       -0.888511    0.647295   -1.201970
      5          1           0       -1.746352    0.777060    0.361315
      6          1           0       -1.713880   -0.773843   -0.497895
      7          1           0        0.029601   -0.785367    1.418734
      8          1           0        2.290657   -0.281988    0.595570
      9          1           0        1.574213    0.539030   -0.913472
 ---------------------------------------------------------------------
                    Distance matrix (angstroms):
                    1          2          3          4          5
     1  C    0.000000
     2  C    1.511863   0.000000
     3  C    2.533902   1.346269   0.000000
     4  H    1.101540   2.168684   2.679312   0.000000
     5  H    1.105116   2.170852   3.259155   1.787901   0.000000
     6  H    1.105116   2.170852   3.259155   1.787901   1.773301
     7  H    2.222468   1.096252   2.110892   3.124667   2.591008
     8  H    3.530071   2.134574   1.091715   3.768531   4.180180
     9  H    2.794389   2.130592   1.093632   2.481927   3.564814
                    6          7          8          9
     6  H    0.000000
     7  H    2.591008   0.000000
     8  H    4.180180   2.458326   0.000000
     9  H    3.564814   3.095003   1.861335   0.000000
 Stoichiometry    C3H6
 Framework group  CS[SG(C3H4),X(H2)]
 Deg. of freedom    14
 Full point group                 CS      NOp   2
 RotChk:  IX=3 Diff= 2.14D-15
 Largest Abelian subgroup         CS      NOp   2
 Largest concise Abelian subgroup CS      NOp   2
                         Standard orientation:                         
 ---------------------------------------------------------------------
 Center     Atomic      Atomic             Coordinates (Angstroms)
 Number     Number       Type             X           Y           Z
 ---------------------------------------------------------------------
      1          6           0       -1.147623    0.502265    0.000000
      2          6           0        0.000000   -0.481956    0.000000
      3          6           0        1.302822   -0.142698    0.000000
      4          1           0       -0.781288    1.541105    0.000000
      5          1           0       -1.792383    0.362917    0.886651
      6          1           0       -1.792383    0.362917   -0.886651
      7          1           0       -0.277084   -1.542613    0.000000
      8          1           0        2.094304   -0.894627    0.000000
      9          1           0        1.617644    0.904640    0.000000
 ---------------------------------------------------------------------
 Rotational constants (GHZ):     45.8950802      9.1436907      8.0075006
 Leave Link  202 at Sat Feb 16 13:47:50 2019, MaxMem=   196608000 cpu:         0.6
 (Enter /cm/shared/c3ddb/gaussian/09.d01/g09/l601.exe)
 Copying SCF densities to generalized density rwf, IOpCl= 0 IROHF=0.

 **********************************************************************

            Population analysis using the SCF density.

 **********************************************************************

 Orbital symmetries:
       Occupied  (A') (A') (A') (A') (A') (A') (A') (A') (A") (A')
                 (A') (A")
       Virtual   (A") (A') (A') (A') (A") (A') (A') (A') (A') (A')
                 (A") (A') (A') (A") (A") (A') (A') (A') (A') (A")
                 (A') (A') (A') (A') (A') (A') (A')
 The electronic state is 1-A'.
 Alpha  occ. eigenvalues --   -9.91250  -9.90374  -9.89653  -0.70753  -0.61516
 Alpha  occ. eigenvalues --   -0.49399  -0.41101  -0.36803  -0.36116  -0.32276
 Alpha  occ. eigenvalues --   -0.29876  -0.21386
 Alpha virt. eigenvalues --   -0.00281   0.09373   0.11213   0.12838   0.15066
 Alpha virt. eigenvalues --    0.15440   0.16520   0.25895   0.34661   0.49126
 Alpha virt. eigenvalues --    0.51310   0.52649   0.58971   0.61692   0.62228
 Alpha virt. eigenvalues --    0.66867   0.71969   0.74948   0.83044   0.87719
 Alpha virt. eigenvalues --    0.87845   0.90561   0.92433   0.93629   1.10739
 Alpha virt. eigenvalues --    1.21482   1.33299
          Condensed to atoms (all electrons):
               1          2          3          4          5          6
     1  C    5.116639   0.359871  -0.045736   0.373324   0.363886   0.363886
     2  C    0.359871   4.846081   0.653951  -0.038460  -0.033944  -0.033944
     3  C   -0.045736   0.653951   5.004060  -0.005145   0.000220   0.000220
     4  H    0.373324  -0.038460  -0.005145   0.569084  -0.028979  -0.028979
     5  H    0.363886  -0.033944   0.000220  -0.028979   0.582684  -0.035756
     6  H    0.363886  -0.033944   0.000220  -0.028979  -0.035756   0.582684
     7  H   -0.053011   0.372192  -0.043731   0.004358  -0.001039  -0.001039
     8  H    0.005282  -0.029510   0.367536   0.000058  -0.000173  -0.000173
     9  H   -0.011471  -0.039098   0.372319   0.006329   0.000177   0.000177
               7          8          9
     1  C   -0.053011   0.005282  -0.011471
     2  C    0.372192  -0.029510  -0.039098
     3  C   -0.043731   0.367536   0.372319
     4  H    0.004358   0.000058   0.006329
     5  H   -0.001039  -0.000173   0.000177
     6  H   -0.001039  -0.000173   0.000177
     7  H    0.599263  -0.007794   0.005501
     8  H   -0.007794   0.576732  -0.040449
     9  H    0.005501  -0.040449   0.581061
 Mulliken charges:
               1
     1  C   -0.472669
     2  C   -0.057140
     3  C   -0.303695
     4  H    0.148409
     5  H    0.152924
     6  H    0.152924
     7  H    0.125301
     8  H    0.128493
     9  H    0.125454
 Sum of Mulliken charges =   0.00000
 Mulliken charges with hydrogens summed into heavy atoms:
               1
     1  C   -0.018413
     2  C    0.068160
     3  C   -0.049748
 Electronic spatial extent (au):  <R**2>=            198.9158
 Charge=              0.0000 electrons
 Dipole moment (field-independent basis, Debye):
    X=             -0.3876    Y=              0.0235    Z=              0.0000  Tot=              0.3883
 Quadrupole moment (field-independent basis, Debye-Ang):
   XX=            -18.7630   YY=            -18.7588   ZZ=            -21.3744
   XY=              0.1173   XZ=              0.0000   YZ=              0.0000
 Traceless Quadrupole moment (field-independent basis, Debye-Ang):
   XX=              0.8691   YY=              0.8733   ZZ=             -1.7423
   XY=              0.1173   XZ=              0.0000   YZ=              0.0000
 Octapole moment (field-independent basis, Debye-Ang**2):
  XXX=              1.0070  YYY=             -0.3881  ZZZ=              0.0000  XYY=              0.9174
  XXY=             -0.6486  XXZ=              0.0000  XZZ=             -2.2519  YZZ=              0.4161
  YYZ=              0.0000  XYZ=              0.0000
 Hexadecapole moment (field-independent basis, Debye-Ang**3):
 XXXX=           -172.3519 YYYY=            -60.9987 ZZZZ=            -28.7232 XXXY=             15.9171
 XXXZ=              0.0000 YYYX=             18.2254 YYYZ=              0.0000 ZZZX=              0.0000
 ZZZY=              0.0000 XXYY=            -38.9357 XXZZ=            -34.3193 YYZZ=            -16.5448
 XXYZ=              0.0000 YYXZ=              0.0000 ZZXY=              6.1493
 N-N= 7.011144082593D+01 E-N=-4.128236242626D+02  KE= 1.171245836674D+02
 Symmetry A'   KE= 1.130517438676D+02
 Symmetry A"   KE= 4.072839799862D+00
 No NMR shielding tensors so no spin-rotation constants.
 Leave Link  601 at Sat Feb 16 13:47:51 2019, MaxMem=   196608000 cpu:         5.5
 (Enter /cm/shared/c3ddb/gaussian/09.d01/g09/l9999.exe)
 1\1\GINC-NODE024\FOpt\RB97D\6-31G\C3H6\DUMINDA\16-Feb-2019\0\\#P opt=c
 alcfc b97d/6-31g scf=xqc\\name\\0,1\C,-1.1103536384,0.1208683059,-0.26
 01356919\C,0.1600726231,-0.2558032812,0.4677834602\C,1.4045519405,0.01
 27488433,0.0300711046\H,-0.888510794,0.6472952069,-1.2019700104\H,-1.7
 463523345,0.7770597329,0.3613148337\H,-1.7138796562,-0.7738434543,-0.4
 978950202\H,0.0296012208,-0.7853674759,1.4187339618\H,2.2906573396,-0.
 2819875532,0.5955695449\H,1.5742132575,0.5390300286,-0.9134723227\\Ver
 sion=AS64L-G09RevD.01\State=1-A'\HF=-117.7971468\RMSD=1.891e-09\RMSF=1
 .058e-05\Dipole=-0.1522948,-0.008035,0.0087477\Quadrupole=0.6220759,-0
 .8314128,0.2093369,0.0712039,-0.0560576,-0.8348007\PG=CS [SG(C3H4),X(H
 2)]\\@


  ON THE CHOICE OF THE CORRECT LANGUAGE -
 I SPEAK SPANISH TO GOD, ITALIAN TO WOMEN,
 FRENCH TO MEN, AND GERMAN TO MY HORSE.
          -- CHARLES V
 Job cpu time:       0 days  0 hours  4 minutes 31.7 seconds.
 File lengths (MBytes):  RWF=      5 Int=      0 D2E=      0 Chk=      1 Scr=      1
 Normal termination of Gaussian 09 at Sat Feb 16 13:47:51 2019.
