 Entering Gaussian System, Link 0=g09
 Initial command:
 /cm/shared/c3ddb/gaussian/09.d01/g09/l1.exe "/scratch/users/duminda/g09/a1695-7322594/Gau-11241.inp" -scrdir="/scratch/users/duminda/g09/a1695-7322594/"
 Entering Link 1 = /cm/shared/c3ddb/gaussian/09.d01/g09/l1.exe PID=     11242.
  
 Copyright (c) 1988,1990,1992,1993,1995,1998,2003,2009,2013,
            Gaussian, Inc.  All Rights Reserved.
  
 This is part of the Gaussian(R) 09 program.  It is based on
 the Gaussian(R) 03 system (copyright 2003, Gaussian, Inc.),
 the Gaussian(R) 98 system (copyright 1998, Gaussian, Inc.),
 the Gaussian(R) 94 system (copyright 1995, Gaussian, Inc.),
 the Gaussian 92(TM) system (copyright 1992, Gaussian, Inc.),
 the Gaussian 90(TM) system (copyright 1990, Gaussian, Inc.),
 the Gaussian 88(TM) system (copyright 1988, Gaussian, Inc.),
 the Gaussian 86(TM) system (copyright 1986, Carnegie Mellon
 University), and the Gaussian 82(TM) system (copyright 1983,
 Carnegie Mellon University). Gaussian is a federally registered
 trademark of Gaussian, Inc.
  
 This software contains proprietary and confidential information,
 including trade secrets, belonging to Gaussian, Inc.
  
 This software is provided under written license and may be
 used, copied, transmitted, or stored only in accord with that
 written license.
  
 The following legend is applicable only to US Government
 contracts under FAR:
  
                    RESTRICTED RIGHTS LEGEND
  
 Use, reproduction and disclosure by the US Government is
 subject to restrictions as set forth in subparagraphs (a)
 and (c) of the Commercial Computer Software - Restricted
 Rights clause in FAR 52.227-19.
  
 Gaussian, Inc.
 340 Quinnipiac St., Bldg. 40, Wallingford CT 06492
  
  
 ---------------------------------------------------------------
 Warning -- This program may not be used in any manner that
 competes with the business of Gaussian, Inc. or will provide
 assistance to any competitor of Gaussian, Inc.  The licensee
 of this program is prohibited from giving any competitor of
 Gaussian, Inc. access to this program.  By using this program,
 the user acknowledges that Gaussian, Inc. is engaged in the
 business of creating and licensing software in the field of
 computational chemistry and represents and warrants to the
 licensee that it is not a competitor of Gaussian, Inc. and that
 it will not use this program in any manner prohibited above.
 ---------------------------------------------------------------
  

 Cite this work as:
 Gaussian 09, Revision D.01,
 M. J. Frisch, G. W. Trucks, H. B. Schlegel, G. E. Scuseria, 
 M. A. Robb, J. R. Cheeseman, G. Scalmani, V. Barone, B. Mennucci, 
 G. A. Petersson, H. Nakatsuji, M. Caricato, X. Li, H. P. Hratchian, 
 A. F. Izmaylov, J. Bloino, G. Zheng, J. L. Sonnenberg, M. Hada, 
 M. Ehara, K. Toyota, R. Fukuda, J. Hasegawa, M. Ishida, T. Nakajima, 
 Y. Honda, O. Kitao, H. Nakai, T. Vreven, J. A. Montgomery, Jr., 
 J. E. Peralta, F. Ogliaro, M. Bearpark, J. J. Heyd, E. Brothers, 
 K. N. Kudin, V. N. Staroverov, T. Keith, R. Kobayashi, J. Normand, 
 K. Raghavachari, A. Rendell, J. C. Burant, S. S. Iyengar, J. Tomasi, 
 M. Cossi, N. Rega, J. M. Millam, M. Klene, J. E. Knox, J. B. Cross, 
 V. Bakken, C. Adamo, J. Jaramillo, R. Gomperts, R. E. Stratmann, 
 O. Yazyev, A. J. Austin, R. Cammi, C. Pomelli, J. W. Ochterski, 
 R. L. Martin, K. Morokuma, V. G. Zakrzewski, G. A. Voth, 
 P. Salvador, J. J. Dannenberg, S. Dapprich, A. D. Daniels, 
 O. Farkas, J. B. Foresman, J. V. Ortiz, J. Cioslowski, 
 and D. J. Fox, Gaussian, Inc., Wallingford CT, 2013.
 
 ******************************************
 Gaussian 09:  AS64L-G09RevD.01 24-Apr-2013
                16-Feb-2019 
 ******************************************
 %chk=check.chk
 %mem=1500mb
 %nproc=8
 Will use up to    8 processors via shared memory.
 --------------------------------------------------------------
 #P opt=(modredundant, calcfc, noeigentest) b3lyp/cbsb7 scf=xqc
 --------------------------------------------------------------
 1/10=4,11=1,14=-1,18=120,19=15,26=3,38=1/1,3;
 2/9=110,12=2,17=6,18=5,40=1/2;
 3/5=4,6=6,7=700,11=2,16=1,25=1,30=1,71=2,74=-5,140=1/1,2,3;
 4//1;
 5/5=2,8=3,13=1,38=5/2,8;
 8/6=4,10=90,11=11/1;
 11/6=1,8=1,9=11,15=111,16=1/1,2,10;
 10/6=1,13=1/2;
 6/7=2,8=2,9=2,10=2,28=1/1;
 7/10=1,18=20,25=1/1,2,3,16;
 1/10=4,11=1,14=-1,18=20,19=15,26=3/3(2);
 2/9=110/2;
 99//99;
 2/9=110/2;
 3/5=4,6=6,7=700,11=2,16=1,25=1,30=1,71=1,74=-5/1,2,3;
 4/5=5,16=3,69=1/1;
 5/5=2,8=3,13=1,38=5/2,8;
 7//1,2,3,16;
 1/11=1,14=-1,18=20,19=15,26=3/3(-5);
 2/9=110/2;
 6/7=2,8=2,9=2,10=2,19=2,28=1/1;
 99/9=1/99;
 Leave Link    1 at Sat Feb 16 14:04:37 2019, MaxMem=   196608000 cpu:         0.9
 (Enter /cm/shared/c3ddb/gaussian/09.d01/g09/l101.exe)
 ----
 name
 ----
 Symbolic Z-matrix:
 Charge =  0 Multiplicity = 1
 C                    -1.1029    0.12083  -0.25978 
 C                     0.16169  -0.25008   0.45752 
 C                     1.39305   0.01219   0.03065 
 H                    -0.89493   0.64392  -1.19612 
 H                    -1.73215   0.76807   0.36126 
 H                    -1.69997  -0.76857  -0.49005 
 H                     0.03563  -0.77623   1.40248 
 H                     2.26742  -0.28434   0.59894 
 H                     1.57217   0.53423  -0.90489 
 
 The following ModRedundant input section has been read:
 D       4       1       2       3 S  36 10.000                                
 
 NAtoms=      9 NQM=        9 NQMF=       0 NMMI=      0 NMMIF=      0
                NMic=       0 NMicF=      0.
                    Isotopes and Nuclear Properties:
 (Nuclear quadrupole moments (NQMom) in fm**2, nuclear magnetic moments (NMagM)
  in nuclear magnetons)

  Atom         1           2           3           4           5           6           7           8           9
 IAtWgt=          12          12          12           1           1           1           1           1           1
 AtmWgt=  12.0000000  12.0000000  12.0000000   1.0078250   1.0078250   1.0078250   1.0078250   1.0078250   1.0078250
 NucSpn=           0           0           0           1           1           1           1           1           1
 AtZEff=   0.0000000   0.0000000   0.0000000   0.0000000   0.0000000   0.0000000   0.0000000   0.0000000   0.0000000
 NQMom=    0.0000000   0.0000000   0.0000000   0.0000000   0.0000000   0.0000000   0.0000000   0.0000000   0.0000000
 NMagM=    0.0000000   0.0000000   0.0000000   2.7928460   2.7928460   2.7928460   2.7928460   2.7928460   2.7928460
 AtZNuc=   6.0000000   6.0000000   6.0000000   1.0000000   1.0000000   1.0000000   1.0000000   1.0000000   1.0000000
 Leave Link  101 at Sat Feb 16 14:04:37 2019, MaxMem=   196608000 cpu:         1.7
 (Enter /cm/shared/c3ddb/gaussian/09.d01/g09/l103.exe)

 GradGradGradGradGradGradGradGradGradGradGradGradGradGradGradGradGradGrad
 Berny optimization.
 Initialization pass.
                           ----------------------------
                           !    Initial Parameters    !
                           ! (Angstroms and Degrees)  !
 --------------------------                            --------------------------
 ! Name  Definition              Value          Derivative Info.                !
 --------------------------------------------------------------------------------
 ! R1    R(1,2)                  1.5004         calculate D2E/DX2 analytically  !
 ! R2    R(1,4)                  1.0925         calculate D2E/DX2 analytically  !
 ! R3    R(1,5)                  1.0957         calculate D2E/DX2 analytically  !
 ! R4    R(1,6)                  1.0957         calculate D2E/DX2 analytically  !
 ! R5    R(2,3)                  1.3294         calculate D2E/DX2 analytically  !
 ! R6    R(2,7)                  1.0889         calculate D2E/DX2 analytically  !
 ! R7    R(3,8)                  1.0842         calculate D2E/DX2 analytically  !
 ! R8    R(3,9)                  1.0862         calculate D2E/DX2 analytically  !
 ! A1    A(2,1,4)              111.5709         calculate D2E/DX2 analytically  !
 ! A2    A(2,1,5)              111.0438         calculate D2E/DX2 analytically  !
 ! A3    A(2,1,6)              111.0437         calculate D2E/DX2 analytically  !
 ! A4    A(4,1,5)              108.1956         calculate D2E/DX2 analytically  !
 ! A5    A(4,1,6)              108.1956         calculate D2E/DX2 analytically  !
 ! A6    A(5,1,6)              106.598          calculate D2E/DX2 analytically  !
 ! A7    A(1,2,3)              125.3377         calculate D2E/DX2 analytically  !
 ! A8    A(1,2,7)              115.8973         calculate D2E/DX2 analytically  !
 ! A9    A(3,2,7)              118.765          calculate D2E/DX2 analytically  !
 ! A10   A(2,3,8)              121.6521         calculate D2E/DX2 analytically  !
 ! A11   A(2,3,9)              121.6095         calculate D2E/DX2 analytically  !
 ! A12   A(8,3,9)              116.7384         calculate D2E/DX2 analytically  !
 ! D1    D(4,1,2,3)              0.0001         Scan                            !
 ! D2    D(4,1,2,7)           -180.0            calculate D2E/DX2 analytically  !
 ! D3    D(5,1,2,3)           -120.7889         calculate D2E/DX2 analytically  !
 ! D4    D(5,1,2,7)             59.2111         calculate D2E/DX2 analytically  !
 ! D5    D(6,1,2,3)            120.7889         calculate D2E/DX2 analytically  !
 ! D6    D(6,1,2,7)            -59.2111         calculate D2E/DX2 analytically  !
 ! D7    D(1,2,3,8)           -180.0            calculate D2E/DX2 analytically  !
 ! D8    D(1,2,3,9)              0.0            calculate D2E/DX2 analytically  !
 ! D9    D(7,2,3,8)              0.0            calculate D2E/DX2 analytically  !
 ! D10   D(7,2,3,9)            180.0            calculate D2E/DX2 analytically  !
 --------------------------------------------------------------------------------
 Trust Radius=3.00D-01 FncErr=1.00D-07 GrdErr=1.00D-06
 Number of optimizations in scan=  37
 Number of steps in this run=     40 maximum allowed number of steps=    100.
 GradGradGradGradGradGradGradGradGradGradGradGradGradGradGradGradGradGrad

 Leave Link  103 at Sat Feb 16 14:04:37 2019, MaxMem=   196608000 cpu:         0.1
 (Enter /cm/shared/c3ddb/gaussian/09.d01/g09/l202.exe)
                          Input orientation:                          
 ---------------------------------------------------------------------
 Center     Atomic      Atomic             Coordinates (Angstroms)
 Number     Number       Type             X           Y           Z
 ---------------------------------------------------------------------
      1          6           0       -1.102897    0.120829   -0.259783
      2          6           0        0.161685   -0.250084    0.457521
      3          6           0        1.393047    0.012186    0.030653
      4          1           0       -0.894932    0.643919   -1.196120
      5          1           0       -1.732149    0.768065    0.361256
      6          1           0       -1.699974   -0.768574   -0.490051
      7          1           0        0.035631   -0.776234    1.402476
      8          1           0        2.267420   -0.284340    0.598938
      9          1           0        1.572169    0.534232   -0.904889
 ---------------------------------------------------------------------
                    Distance matrix (angstroms):
                    1          2          3          4          5
     1  C    0.000000
     2  C    1.500423   0.000000
     3  C    2.515133   1.329381   0.000000
     4  H    1.092520   2.156434   2.671873   0.000000
     5  H    1.095702   2.152325   3.232259   1.772502   0.000000
     6  H    1.095702   2.152324   3.232259   1.772502   1.756991
     7  H    2.205464   1.088882   2.084726   3.104107   2.567887
     8  H    3.501514   2.110756   1.084160   3.752915   4.142536
     9  H    2.782632   2.112055   1.086212   2.486651   3.546311
                    6          7          8          9
     6  H    0.000000
     7  H    2.567887   0.000000
     8  H    4.142535   2.422502   0.000000
     9  H    3.546310   3.066301   1.847953   0.000000
 Stoichiometry    C3H6
 Framework group  CS[SG(C3H4),X(H2)]
 Deg. of freedom    14
 Full point group                 CS      NOp   2
 Largest Abelian subgroup         CS      NOp   2
 Largest concise Abelian subgroup CS      NOp   2
                         Standard orientation:                         
 ---------------------------------------------------------------------
 Center     Atomic      Atomic             Coordinates (Angstroms)
 Number     Number       Type             X           Y           Z
 ---------------------------------------------------------------------
      1          6           0       -1.209178   -0.293818    0.000000
      2          6           0        0.085174    0.465078    0.000000
      3          6           0        1.296980   -0.081531    0.000000
      4          1           0       -1.041797   -1.373439    0.000000
      5          1           0       -1.813346   -0.041252   -0.878495
      6          1           0       -1.813346   -0.041252    0.878495
      7          1           0        0.000000    1.550623    0.000000
      8          1           0        2.195056    0.525809    0.000000
      9          1           0        1.435578   -1.158864    0.000000
 ---------------------------------------------------------------------
 Rotational constants (GHZ):     47.0368327      9.2765818      8.1365546
 Leave Link  202 at Sat Feb 16 14:04:37 2019, MaxMem=   196608000 cpu:         0.4
 (Enter /cm/shared/c3ddb/gaussian/09.d01/g09/l301.exe)
 Standard basis: 6-311G(2d,d,p) (5D, 7F)
 Ernie: Thresh=  0.10000D-02 Tol=  0.10000D-05 Strict=F.
 There are    68 symmetry adapted cartesian basis functions of A'  symmetry.
 There are    25 symmetry adapted cartesian basis functions of A"  symmetry.
 There are    65 symmetry adapted basis functions of A'  symmetry.
 There are    25 symmetry adapted basis functions of A"  symmetry.
    90 basis functions,   144 primitive gaussians,    93 cartesian basis functions
    12 alpha electrons       12 beta electrons
       nuclear repulsion energy        70.7301191336 Hartrees.
 IExCor=  402 DFT=T Ex+Corr=B3LYP ExCW=0 ScaHFX=  0.200000
 ScaDFX=  0.800000  0.720000  1.000000  0.810000 ScalE2=  1.000000  1.000000
 IRadAn=      0 IRanWt=     -1 IRanGd=            0 ICorTp=0 IEmpDi=  4
 NAtoms=    9 NActive=    9 NUniq=    8 SFac= 1.27D+00 NAtFMM=   60 NAOKFM=F Big=F
 Integral buffers will be    131072 words long.
 Raffenetti 2 integral format.
 Two-electron integral symmetry is turned on.
 Leave Link  301 at Sat Feb 16 14:04:38 2019, MaxMem=   196608000 cpu:         1.3
 (Enter /cm/shared/c3ddb/gaussian/09.d01/g09/l302.exe)
 NPDir=0 NMtPBC=     1 NCelOv=     1 NCel=       1 NClECP=     1 NCelD=      1
         NCelK=      1 NCelE2=     1 NClLst=     1 CellRange=     0.0.
 One-electron integrals computed using PRISM.
 One-electron integral symmetry used in STVInt
 NBasis=    90 RedAO= T EigKep=  3.41D-03  NBF=    65    25
 NBsUse=    90 1.00D-06 EigRej= -1.00D+00 NBFU=    65    25
 Precomputing XC quadrature grid using
 IXCGrd= 4 IRadAn=           0 IRanWt=          -1 IRanGd=           0 AccXCQ= 0.00D+00.
 Generated NRdTot=       0 NPtTot=           0 NUsed=           0 NTot=          32
 NSgBfM=    93    93    93    93    93 MxSgAt=     9 MxSgA2=     9.
 Leave Link  302 at Sat Feb 16 14:04:39 2019, MaxMem=   196608000 cpu:         7.5
 (Enter /cm/shared/c3ddb/gaussian/09.d01/g09/l303.exe)
 DipDrv:  MaxL=1.
 Leave Link  303 at Sat Feb 16 14:04:39 2019, MaxMem=   196608000 cpu:         1.2
 (Enter /cm/shared/c3ddb/gaussian/09.d01/g09/l401.exe)
 ExpMin= 1.03D-01 ExpMax= 4.56D+03 ExpMxC= 6.82D+02 IAcc=1 IRadAn=         1 AccDes= 0.00D+00
 Harris functional with IExCor=  402 and IRadAn=       1 diagonalized for initial guess.
 HarFok:  IExCor=  402 AccDes= 0.00D+00 IRadAn=         1 IDoV= 1 UseB2=F ITyADJ=14
 ICtDFT=  3500011 ScaDFX=  1.000000  1.000000  1.000000  1.000000
 FoFCou: FMM=F IPFlag=           0 FMFlag=      100000 FMFlg1=           0
         NFxFlg=           0 DoJE=T BraDBF=F KetDBF=T FulRan=T
         wScrn=  0.000000 ICntrl=     500 IOpCl=  0 I1Cent=   200000004 NGrid=           0
         NMat0=    1 NMatS0=      1 NMatT0=    0 NMatD0=    1 NMtDS0=    0 NMtDT0=    0
 Petite list used in FoFCou.
 Harris En= -118.000995437102    
 JPrj=0 DoOrth=F DoCkMO=F.
 Initial guess orbital symmetries:
       Occupied  (A') (A') (A') (A') (A') (A') (A') (A') (A") (A')
                 (A') (A")
       Virtual   (A") (A') (A') (A') (A") (A') (A') (A') (A') (A')
                 (A") (A') (A') (A') (A") (A') (A") (A') (A') (A')
                 (A") (A') (A') (A') (A') (A') (A') (A") (A") (A")
                 (A') (A') (A") (A') (A") (A') (A") (A') (A') (A')
                 (A") (A') (A') (A") (A") (A') (A") (A') (A') (A')
                 (A") (A') (A') (A') (A") (A') (A') (A") (A') (A")
                 (A') (A') (A") (A') (A') (A") (A') (A') (A') (A')
                 (A') (A") (A') (A') (A') (A') (A') (A')
 The electronic state of the initial guess is 1-A'.
 Leave Link  401 at Sat Feb 16 14:04:40 2019, MaxMem=   196608000 cpu:         7.1
 (Enter /cm/shared/c3ddb/gaussian/09.d01/g09/l502.exe)
 Closed shell SCF:
 Using DIIS extrapolation, IDIIS=  1040.
 Integral symmetry usage will be decided dynamically.
 Keep R1 ints in memory in symmetry-blocked form, NReq=12802219.
 IVT=       33471 IEndB=       33471 NGot=   196608000 MDV=   192192432
 LenX=   192192432 LenY=   192183342
 Requested convergence on RMS density matrix=1.00D-08 within  64 cycles.
 Requested convergence on MAX density matrix=1.00D-06.
 Requested convergence on             energy=1.00D-06.
 No special actions if energy rises.
 FoFCou: FMM=F IPFlag=           0 FMFlag=           0 FMFlg1=           0
         NFxFlg=           0 DoJE=F BraDBF=F KetDBF=F FulRan=T
         wScrn=  0.000000 ICntrl=     600 IOpCl=  0 I1Cent=           0 NGrid=           0
         NMat0=    1 NMatS0=   4095 NMatT0=    0 NMatD0=    1 NMtDS0=    0 NMtDT0=    0
 Petite list used in FoFCou.
 Integral accuracy reduced to 1.0D-05 until final iterations.

 Cycle   1  Pass 0  IDiag  1:
 E= -117.798146270261    
 DIIS: error= 5.14D-02 at cycle   1 NSaved=   1.
 NSaved= 1 IEnMin= 1 EnMin= -117.798146270261     IErMin= 1 ErrMin= 5.14D-02
 ErrMax= 5.14D-02  0.00D+00 EMaxC= 1.00D-01 BMatC= 1.43D-01 BMatP= 1.43D-01
 IDIUse=3 WtCom= 4.86D-01 WtEn= 5.14D-01
 Coeff-Com:  0.100D+01
 Coeff-En:   0.100D+01
 Coeff:      0.100D+01
 Gap=     0.220 Goal=   None    Shift=    0.000
 GapD=    0.220 DampG=1.000 DampE=0.500 DampFc=0.5000 IDamp=-1.
 Damping current iteration by 5.00D-01
 RMSDP=6.15D-03 MaxDP=1.23D-01              OVMax= 1.80D-01

 Cycle   2  Pass 0  IDiag  1:
 E= -117.864658450775     Delta-E=       -0.066512180514 Rises=F Damp=T
 DIIS: error= 5.77D-03 at cycle   2 NSaved=   2.
 NSaved= 2 IEnMin= 2 EnMin= -117.864658450775     IErMin= 2 ErrMin= 5.77D-03
 ErrMax= 5.77D-03  0.00D+00 EMaxC= 1.00D-01 BMatC= 4.43D-03 BMatP= 1.43D-01
 IDIUse=3 WtCom= 9.42D-01 WtEn= 5.77D-02
 Coeff-Com:  0.375D-01 0.962D+00
 Coeff-En:   0.982D-01 0.902D+00
 Coeff:      0.410D-01 0.959D+00
 Gap=     0.281 Goal=   None    Shift=    0.000
 RMSDP=1.02D-03 MaxDP=1.16D-02 DE=-6.65D-02 OVMax= 1.05D-01

 Cycle   3  Pass 0  IDiag  1:
 E= -117.943411997701     Delta-E=       -0.078753546926 Rises=F Damp=F
 DIIS: error= 2.49D-03 at cycle   3 NSaved=   3.
 NSaved= 3 IEnMin= 3 EnMin= -117.943411997701     IErMin= 3 ErrMin= 2.49D-03
 ErrMax= 2.49D-03  0.00D+00 EMaxC= 1.00D-01 BMatC= 5.83D-04 BMatP= 4.43D-03
 IDIUse=3 WtCom= 9.75D-01 WtEn= 2.49D-02
 Coeff-Com: -0.245D-01 0.192D+00 0.832D+00
 Coeff-En:   0.000D+00 0.000D+00 0.100D+01
 Coeff:     -0.239D-01 0.187D+00 0.837D+00
 Gap=     0.275 Goal=   None    Shift=    0.000
 RMSDP=2.99D-04 MaxDP=3.78D-03 DE=-7.88D-02 OVMax= 1.34D-02

 Cycle   4  Pass 0  IDiag  1:
 E= -117.943731393885     Delta-E=       -0.000319396184 Rises=F Damp=F
 DIIS: error= 2.76D-03 at cycle   4 NSaved=   4.
 NSaved= 4 IEnMin= 4 EnMin= -117.943731393885     IErMin= 3 ErrMin= 2.49D-03
 ErrMax= 2.76D-03  0.00D+00 EMaxC= 1.00D-01 BMatC= 2.83D-04 BMatP= 5.83D-04
 IDIUse=3 WtCom= 9.72D-01 WtEn= 2.76D-02
 Coeff-Com: -0.155D-01 0.684D-01 0.470D+00 0.477D+00
 Coeff-En:   0.000D+00 0.000D+00 0.295D+00 0.705D+00
 Coeff:     -0.150D-01 0.665D-01 0.465D+00 0.484D+00
 Gap=     0.274 Goal=   None    Shift=    0.000
 RMSDP=1.48D-04 MaxDP=2.73D-03 DE=-3.19D-04 OVMax= 1.20D-02

 Cycle   5  Pass 0  IDiag  1:
 E= -117.943979921096     Delta-E=       -0.000248527211 Rises=F Damp=F
 DIIS: error= 9.67D-04 at cycle   5 NSaved=   5.
 NSaved= 5 IEnMin= 5 EnMin= -117.943979921096     IErMin= 5 ErrMin= 9.67D-04
 ErrMax= 9.67D-04  0.00D+00 EMaxC= 1.00D-01 BMatC= 3.44D-05 BMatP= 2.83D-04
 IDIUse=3 WtCom= 9.90D-01 WtEn= 9.67D-03
 Coeff-Com: -0.480D-02 0.922D-02 0.145D+00 0.290D+00 0.561D+00
 Coeff-En:   0.000D+00 0.000D+00 0.000D+00 0.112D+00 0.888D+00
 Coeff:     -0.475D-02 0.913D-02 0.144D+00 0.288D+00 0.564D+00
 Gap=     0.274 Goal=   None    Shift=    0.000
 RMSDP=4.69D-05 MaxDP=8.44D-04 DE=-2.49D-04 OVMax= 3.47D-03

 Cycle   6  Pass 0  IDiag  1:
 E= -117.944015462839     Delta-E=       -0.000035541743 Rises=F Damp=F
 DIIS: error= 4.98D-05 at cycle   6 NSaved=   6.
 NSaved= 6 IEnMin= 6 EnMin= -117.944015462839     IErMin= 6 ErrMin= 4.98D-05
 ErrMax= 4.98D-05  0.00D+00 EMaxC= 1.00D-01 BMatC= 1.47D-07 BMatP= 3.44D-05
 IDIUse=1 WtCom= 1.00D+00 WtEn= 0.00D+00
 Coeff-Com: -0.537D-03 0.362D-04 0.218D-01 0.543D-01 0.141D+00 0.783D+00
 Coeff:     -0.537D-03 0.362D-04 0.218D-01 0.543D-01 0.141D+00 0.783D+00
 Gap=     0.274 Goal=   None    Shift=    0.000
 RMSDP=5.15D-06 MaxDP=6.35D-05 DE=-3.55D-05 OVMax= 1.85D-04

 Initial convergence to 1.0D-05 achieved.  Increase integral accuracy.
 Cycle   7  Pass 1  IDiag  1:
 E= -117.944057459500     Delta-E=       -0.000041996661 Rises=F Damp=F
 DIIS: error= 1.20D-05 at cycle   1 NSaved=   1.
 NSaved= 1 IEnMin= 1 EnMin= -117.944057459500     IErMin= 1 ErrMin= 1.20D-05
 ErrMax= 1.20D-05  0.00D+00 EMaxC= 1.00D-01 BMatC= 1.02D-08 BMatP= 1.02D-08
 IDIUse=1 WtCom= 1.00D+00 WtEn= 0.00D+00
 Coeff-Com:  0.100D+01
 Coeff:      0.100D+01
 Gap=     0.274 Goal=   None    Shift=    0.000
 RMSDP=5.15D-06 MaxDP=6.35D-05 DE=-4.20D-05 OVMax= 7.12D-05

 Cycle   8  Pass 1  IDiag  1:
 E= -117.944057470756     Delta-E=       -0.000000011256 Rises=F Damp=F
 DIIS: error= 1.02D-05 at cycle   2 NSaved=   2.
 NSaved= 2 IEnMin= 2 EnMin= -117.944057470756     IErMin= 2 ErrMin= 1.02D-05
 ErrMax= 1.02D-05  0.00D+00 EMaxC= 1.00D-01 BMatC= 3.21D-09 BMatP= 1.02D-08
 IDIUse=1 WtCom= 1.00D+00 WtEn= 0.00D+00
 Coeff-Com:  0.297D+00 0.703D+00
 Coeff:      0.297D+00 0.703D+00
 Gap=     0.274 Goal=   None    Shift=    0.000
 RMSDP=8.72D-07 MaxDP=1.61D-05 DE=-1.13D-08 OVMax= 6.05D-05

 Cycle   9  Pass 1  IDiag  1:
 E= -117.944057471352     Delta-E=       -0.000000000596 Rises=F Damp=F
 DIIS: error= 9.77D-06 at cycle   3 NSaved=   3.
 NSaved= 3 IEnMin= 3 EnMin= -117.944057471352     IErMin= 3 ErrMin= 9.77D-06
 ErrMax= 9.77D-06  0.00D+00 EMaxC= 1.00D-01 BMatC= 2.91D-09 BMatP= 3.21D-09
 IDIUse=1 WtCom= 1.00D+00 WtEn= 0.00D+00
 Coeff-Com:  0.296D-01 0.481D+00 0.489D+00
 Coeff:      0.296D-01 0.481D+00 0.489D+00
 Gap=     0.274 Goal=   None    Shift=    0.000
 RMSDP=3.99D-07 MaxDP=8.09D-06 DE=-5.96D-10 OVMax= 3.29D-05

 Cycle  10  Pass 1  IDiag  1:
 E= -117.944057474269     Delta-E=       -0.000000002917 Rises=F Damp=F
 DIIS: error= 8.64D-07 at cycle   4 NSaved=   4.
 NSaved= 4 IEnMin= 4 EnMin= -117.944057474269     IErMin= 4 ErrMin= 8.64D-07
 ErrMax= 8.64D-07  0.00D+00 EMaxC= 1.00D-01 BMatC= 6.86D-11 BMatP= 2.91D-09
 IDIUse=1 WtCom= 1.00D+00 WtEn= 0.00D+00
 Coeff-Com: -0.107D-01 0.164D+00 0.215D+00 0.632D+00
 Coeff:     -0.107D-01 0.164D+00 0.215D+00 0.632D+00
 Gap=     0.274 Goal=   None    Shift=    0.000
 RMSDP=7.89D-08 MaxDP=1.32D-06 DE=-2.92D-09 OVMax= 2.92D-06

 Cycle  11  Pass 1  IDiag  1:
 E= -117.944057474338     Delta-E=       -0.000000000069 Rises=F Damp=F
 DIIS: error= 2.86D-07 at cycle   5 NSaved=   5.
 NSaved= 5 IEnMin= 5 EnMin= -117.944057474338     IErMin= 5 ErrMin= 2.86D-07
 ErrMax= 2.86D-07  0.00D+00 EMaxC= 1.00D-01 BMatC= 3.73D-12 BMatP= 6.86D-11
 IDIUse=1 WtCom= 1.00D+00 WtEn= 0.00D+00
 Coeff-Com: -0.628D-02 0.563D-01 0.781D-01 0.286D+00 0.586D+00
 Coeff:     -0.628D-02 0.563D-01 0.781D-01 0.286D+00 0.586D+00
 Gap=     0.274 Goal=   None    Shift=    0.000
 RMSDP=1.52D-08 MaxDP=5.04D-07 DE=-6.90D-11 OVMax= 5.80D-07

 Cycle  12  Pass 1  IDiag  1:
 E= -117.944057474341     Delta-E=       -0.000000000003 Rises=F Damp=F
 DIIS: error= 5.40D-08 at cycle   6 NSaved=   6.
 NSaved= 6 IEnMin= 6 EnMin= -117.944057474341     IErMin= 6 ErrMin= 5.40D-08
 ErrMax= 5.40D-08  0.00D+00 EMaxC= 1.00D-01 BMatC= 1.49D-13 BMatP= 3.73D-12
 IDIUse=1 WtCom= 1.00D+00 WtEn= 0.00D+00
 Coeff-Com: -0.129D-02 0.700D-02 0.106D-01 0.492D-01 0.210D+00 0.725D+00
 Coeff:     -0.129D-02 0.700D-02 0.106D-01 0.492D-01 0.210D+00 0.725D+00
 Gap=     0.274 Goal=   None    Shift=    0.000
 RMSDP=3.13D-09 MaxDP=9.05D-08 DE=-3.47D-12 OVMax= 1.06D-07

 SCF Done:  E(RB3LYP) =  -117.944057474     A.U. after   12 cycles
            NFock= 12  Conv=0.31D-08     -V/T= 2.0051
 KE= 1.173504284384D+02 PE=-4.142835375617D+02 EE= 1.082589325153D+02
 Leave Link  502 at Sat Feb 16 14:04:59 2019, MaxMem=   196608000 cpu:       130.8
 (Enter /cm/shared/c3ddb/gaussian/09.d01/g09/l508.exe)
 QCSCF skips out because SCF is already converged.
 Leave Link  508 at Sat Feb 16 14:04:59 2019, MaxMem=   196608000 cpu:         0.0
 (Enter /cm/shared/c3ddb/gaussian/09.d01/g09/l801.exe)
 DoSCS=F DFT=T ScalE2(SS,OS)=  1.000000  1.000000
 Range of M.O.s used for correlation:     1    90
 NBasis=    90 NAE=    12 NBE=    12 NFC=     0 NFV=     0
 NROrb=     90 NOA=    12 NOB=    12 NVA=    78 NVB=    78
 Leave Link  801 at Sat Feb 16 14:04:59 2019, MaxMem=   196608000 cpu:         0.3
 (Enter /cm/shared/c3ddb/gaussian/09.d01/g09/l1101.exe)
 Using compressed storage, NAtomX=     9.
 Will process     10 centers per pass.
 Leave Link 1101 at Sat Feb 16 14:05:01 2019, MaxMem=   196608000 cpu:        10.9
 (Enter /cm/shared/c3ddb/gaussian/09.d01/g09/l1102.exe)
 Symmetrizing basis deriv contribution to polar:
 IMax=3 JMax=2 DiffMx= 0.00D+00
 Leave Link 1102 at Sat Feb 16 14:05:01 2019, MaxMem=   196608000 cpu:         0.8
 (Enter /cm/shared/c3ddb/gaussian/09.d01/g09/l1110.exe)
 Forming Gx(P) for the SCF density, NAtomX=     9.
 Integral derivatives from FoFJK, PRISM(SPDF).
 Do as many integral derivatives as possible in FoFJK.
 G2DrvN: MDV=     196607824.
 G2DrvN: will do    10 centers at a time, making    1 passes.
 Calling FoFCou, ICntrl=  3107 FMM=F I1Cent=   0 AccDes= 0.00D+00.
 FoFJK:  IHMeth= 1 ICntrl=    3107 DoSepK=F KAlg= 0 I1Cent=   0 FoldK=F
 IRaf=         0 NMat=   1 IRICut=       1 DoRegI=T DoRafI=F ISym2E= 1.
 FoFCou: FMM=F IPFlag=           0 FMFlag=      100000 FMFlg1=           0
         NFxFlg=           0 DoJE=F BraDBF=F KetDBF=F FulRan=T
         wScrn=  0.000000 ICntrl=    3107 IOpCl=  0 I1Cent=           0 NGrid=           0
         NMat0=    1 NMatS0=      1 NMatT0=    0 NMatD0=    1 NMtDS0=    0 NMtDT0=    0
 Petite list used in FoFCou.
 End of G2Drv F.D. properties file   721 does not exist.
 End of G2Drv F.D. properties file   722 does not exist.
 End of G2Drv F.D. properties file   788 does not exist.
 Leave Link 1110 at Sat Feb 16 14:05:06 2019, MaxMem=   196608000 cpu:        32.8
 (Enter /cm/shared/c3ddb/gaussian/09.d01/g09/l1002.exe)
 Minotr:  Closed shell wavefunction.
          IDoAtm=111111111
          Direct CPHF calculation.
          Differentiating once with respect to nuclear coordinates.
          Using symmetry in CPHF.
          Requested convergence is 1.0D-08 RMS, and 1.0D-07 maximum.
          Secondary convergence is 1.0D-12 RMS, and 1.0D-12 maximum.
          NewPWx=T KeepS1=F KeepF1=F KeepIn=T MapXYZ=F SortEE=F KeepMc=T.
          MDV=     196607816 using IRadAn=       2.
 Generate precomputed XC quadrature information.
 Keep R1 ints in memory in symmetry-blocked form, NReq=12771875.
 FoFCou: FMM=F IPFlag=           0 FMFlag=           0 FMFlg1=           0
         NFxFlg=           0 DoJE=F BraDBF=F KetDBF=F FulRan=T
         wScrn=  0.000000 ICntrl=     600 IOpCl=  0 I1Cent=           0 NGrid=           0
         NMat0=    1 NMatS0=   4095 NMatT0=    0 NMatD0=    1 NMtDS0=    0 NMtDT0=    0
 Petite list used in FoFCou.
          Solving linear equations simultaneously, MaxMat=       0.
          There are    27 degrees of freedom in the 1st order CPHF.  IDoFFX=4 NUNeed=    27.
     24 vectors produced by pass  0 Test12= 3.47D-15 3.70D-09 XBig12= 6.82D-02 1.07D-01.
 AX will form    24 AO Fock derivatives at one time.
     24 vectors produced by pass  1 Test12= 3.47D-15 3.70D-09 XBig12= 1.22D-02 3.85D-02.
     24 vectors produced by pass  2 Test12= 3.47D-15 3.70D-09 XBig12= 8.18D-05 1.66D-03.
     24 vectors produced by pass  3 Test12= 3.47D-15 3.70D-09 XBig12= 1.27D-07 8.79D-05.
     24 vectors produced by pass  4 Test12= 3.47D-15 3.70D-09 XBig12= 1.22D-10 2.50D-06.
     10 vectors produced by pass  5 Test12= 3.47D-15 3.70D-09 XBig12= 1.14D-13 7.59D-08.
 InvSVY:  IOpt=1 It=  1 EMax= 2.78D-16
 Solved reduced A of dimension   130 with    27 vectors.
 FullF1:  Do perturbations    4 to    27.
 End of Minotr F.D. properties file   721 does not exist.
 End of Minotr F.D. properties file   722 does not exist.
 End of Minotr F.D. properties file   788 does not exist.
 Leave Link 1002 at Sat Feb 16 14:05:19 2019, MaxMem=   196608000 cpu:        94.1
 (Enter /cm/shared/c3ddb/gaussian/09.d01/g09/l601.exe)
 Copying SCF densities to generalized density rwf, IOpCl= 0 IROHF=0.

 **********************************************************************

            Population analysis using the SCF density.

 **********************************************************************

 Orbital symmetries:
       Occupied  (A') (A') (A') (A') (A') (A') (A') (A') (A") (A')
                 (A') (A")
       Virtual   (A") (A') (A') (A') (A") (A') (A') (A') (A') (A")
                 (A') (A') (A') (A') (A") (A') (A") (A') (A') (A")
                 (A') (A') (A') (A') (A') (A') (A') (A") (A") (A")
                 (A') (A') (A") (A') (A") (A') (A") (A') (A') (A')
                 (A") (A') (A') (A") (A") (A') (A") (A') (A') (A")
                 (A') (A') (A') (A') (A") (A') (A") (A') (A') (A")
                 (A') (A') (A') (A") (A') (A') (A") (A') (A') (A')
                 (A') (A") (A') (A') (A') (A') (A') (A')
 The electronic state is 1-A'.
 Alpha  occ. eigenvalues --  -10.17343 -10.16663 -10.15774  -0.78778  -0.68728
 Alpha  occ. eigenvalues --   -0.55531  -0.46889  -0.42407  -0.41487  -0.37486
 Alpha  occ. eigenvalues --   -0.34768  -0.25988
 Alpha virt. eigenvalues --    0.01452   0.05326   0.07749   0.08679   0.11742
 Alpha virt. eigenvalues --    0.12705   0.13995   0.23340   0.29520   0.30985
 Alpha virt. eigenvalues --    0.32301   0.33612   0.38067   0.42402   0.43780
 Alpha virt. eigenvalues --    0.47031   0.51819   0.55207   0.57629   0.58556
 Alpha virt. eigenvalues --    0.59932   0.62187   0.66569   0.69417   0.79157
 Alpha virt. eigenvalues --    0.84470   0.87293   0.96461   1.05906   1.11416
 Alpha virt. eigenvalues --    1.19539   1.37059   1.38146   1.40792   1.45573
 Alpha virt. eigenvalues --    1.48004   1.50772   1.52209   1.57151   1.58922
 Alpha virt. eigenvalues --    1.61420   1.72209   1.73780   1.75058   1.83312
 Alpha virt. eigenvalues --    1.87093   2.00723   2.01101   2.05128   2.11331
 Alpha virt. eigenvalues --    2.11880   2.17779   2.26052   2.33121   2.33555
 Alpha virt. eigenvalues --    2.37417   2.43775   2.45761   2.48288   2.53690
 Alpha virt. eigenvalues --    2.55724   2.61079   2.67012   2.68680   2.79424
 Alpha virt. eigenvalues --    2.84622   2.88941   3.06100   3.14907   3.46304
 Alpha virt. eigenvalues --    3.71590   3.77802   3.83198   3.96450   4.29834
 Alpha virt. eigenvalues --   23.70768  23.91986  24.28089
          Condensed to atoms (all electrons):
               1          2          3          4          5          6
     1  C    4.820297   0.370064  -0.065080   0.407502   0.398432   0.398432
     2  C    0.370064   4.899843   0.658214  -0.038885  -0.035252  -0.035252
     3  C   -0.065080   0.658214   4.836445  -0.005127   0.000717   0.000717
     4  H    0.407502  -0.038885  -0.005127   0.572889  -0.027885  -0.027885
     5  H    0.398432  -0.035252   0.000717  -0.027885   0.584341  -0.033118
     6  H    0.398432  -0.035252   0.000717  -0.027885  -0.033118   0.584341
     7  H   -0.047694   0.409248  -0.038791   0.007105  -0.002743  -0.002743
     8  H    0.007625  -0.033421   0.408579   0.000000  -0.000413  -0.000413
     9  H   -0.012309  -0.040321   0.409743   0.005517   0.000210   0.000210
               7          8          9
     1  C   -0.047694   0.007625  -0.012309
     2  C    0.409248  -0.033421  -0.040321
     3  C   -0.038791   0.408579   0.409743
     4  H    0.007105   0.000000   0.005517
     5  H   -0.002743  -0.000413   0.000210
     6  H   -0.002743  -0.000413   0.000210
     7  H    0.581409  -0.012414   0.008637
     8  H   -0.012414   0.569196  -0.042912
     9  H    0.008637  -0.042912   0.574656
 Mulliken charges:
               1
     1  C   -0.277270
     2  C   -0.154237
     3  C   -0.205416
     4  H    0.106770
     5  H    0.115713
     6  H    0.115713
     7  H    0.097986
     8  H    0.104174
     9  H    0.096569
 Sum of Mulliken charges =   0.00000
 Mulliken charges with hydrogens summed into heavy atoms:
               1
     1  C    0.060925
     2  C   -0.056251
     3  C   -0.004674
 APT charges:
               1
     1  C   -0.965165
     2  C   -0.506754
     3  C   -0.620209
     4  H    0.282902
     5  H    0.367682
     6  H    0.367682
     7  H    0.334716
     8  H    0.438059
     9  H    0.301088
 Sum of APT charges =   0.00000
 APT charges with hydrogens summed into heavy atoms:
               1
     1  C    0.053099
     2  C   -0.172038
     3  C    0.118938
 Electronic spatial extent (au):  <R**2>=            197.4546
 Charge=              0.0000 electrons
 Dipole moment (field-independent basis, Debye):
    X=             -0.3789    Y=              0.0404    Z=              0.0000  Tot=              0.3810
 Quadrupole moment (field-independent basis, Debye-Ang):
   XX=            -19.2808   YY=            -19.0852   ZZ=            -21.8185
   XY=             -0.1570   XZ=              0.0000   YZ=              0.0000
 Traceless Quadrupole moment (field-independent basis, Debye-Ang):
   XX=              0.7807   YY=              0.9763   ZZ=             -1.7570
   XY=             -0.1570   XZ=              0.0000   YZ=              0.0000
 Octapole moment (field-independent basis, Debye-Ang**2):
  XXX=              1.5744  YYY=              0.0259  ZZZ=              0.0000  XYY=              0.7526
  XXY=              0.8261  XXZ=              0.0000  XZZ=             -2.4824  YZZ=              0.0093
  YYZ=              0.0000  XYZ=              0.0000
 Hexadecapole moment (field-independent basis, Debye-Ang**3):
 XXXX=           -183.8390 YYYY=            -53.6127 ZZZZ=            -31.3397 XXXY=             -5.6622
 XXXZ=              0.0000 YYYX=             -7.6560 YYYZ=              0.0000 ZZZX=              0.0000
 ZZZY=              0.0000 XXYY=            -40.5469 XXZZ=            -36.8487 YYZZ=            -15.9136
 XXYZ=              0.0000 YYXZ=              0.0000 ZZXY=             -2.9419
 N-N= 7.073011913363D+01 E-N=-4.142835392959D+02  KE= 1.173504284384D+02
 Symmetry A'   KE= 1.132494960858D+02
 Symmetry A"   KE= 4.100932352600D+00
  Exact polarizability:   0.000   0.000   0.000   0.000   0.000   0.000
 Approx polarizability:  65.566  -8.680  45.912   0.000   0.000  31.676
 No NMR shielding tensors so no spin-rotation constants.
 Leave Link  601 at Sat Feb 16 14:05:21 2019, MaxMem=   196608000 cpu:        10.4
 (Enter /cm/shared/c3ddb/gaussian/09.d01/g09/l701.exe)
 Compute integral second derivatives.
 ... and contract with generalized density number  0.
 Leave Link  701 at Sat Feb 16 14:05:22 2019, MaxMem=   196608000 cpu:         5.5
 (Enter /cm/shared/c3ddb/gaussian/09.d01/g09/l702.exe)
 L702 exits ... SP integral derivatives will be done elsewhere.
 Leave Link  702 at Sat Feb 16 14:05:22 2019, MaxMem=   196608000 cpu:         0.2
 (Enter /cm/shared/c3ddb/gaussian/09.d01/g09/l703.exe)
 Compute integral second derivatives, UseDBF=F ICtDFT=           0.
 Integral derivatives from FoFJK, PRISM(SPDF).
 Calling FoFJK, ICntrl=    100147 FMM=F ISym2X=1 I1Cent= 0 IOpClX= 0 NMat=1 NMatS=1 NMatT=0.
 FoFJK:  IHMeth= 1 ICntrl=  100147 DoSepK=F KAlg= 0 I1Cent=   0 FoldK=F
 IRaf=         0 NMat=   1 IRICut=       1 DoRegI=T DoRafI=F ISym2E= 1.
 FoFCou: FMM=F IPFlag=           0 FMFlag=      100000 FMFlg1=         800
         NFxFlg=           0 DoJE=F BraDBF=F KetDBF=F FulRan=T
         wScrn=  0.000000 ICntrl=  100147 IOpCl=  0 I1Cent=           0 NGrid=           0
         NMat0=    1 NMatS0=      1 NMatT0=    0 NMatD0=    1 NMtDS0=    0 NMtDT0=    0
 Petite list used in FoFCou.
 Leave Link  703 at Sat Feb 16 14:05:27 2019, MaxMem=   196608000 cpu:        32.1
 (Enter /cm/shared/c3ddb/gaussian/09.d01/g09/l716.exe)
 Dipole        =-1.49064915D-01 1.58764046D-02 8.02721017D-16
 Polarizability= 0.00000000D+00 0.00000000D+00 0.00000000D+00
                 0.00000000D+00 0.00000000D+00 0.00000000D+00
 ***** Axes restored to original set *****
 -------------------------------------------------------------------
 Center     Atomic                   Forces (Hartrees/Bohr)
 Number     Number              X              Y              Z
 -------------------------------------------------------------------
      1        6           0.000064604   -0.000004139    0.000009913
      2        6          -0.000032011   -0.000016895    0.000029287
      3        6          -0.000003546    0.000019199   -0.000034789
      4        1           0.000019121    0.000006728   -0.000011422
      5        1          -0.000019740    0.000016529    0.000002696
      6        1          -0.000019149   -0.000011675   -0.000012929
      7        1           0.000008178    0.000002009   -0.000003316
      8        1           0.000014056   -0.000004344    0.000008373
      9        1          -0.000031513   -0.000007412    0.000012187
 -------------------------------------------------------------------
 Cartesian Forces:  Max     0.000064604 RMS     0.000020634
 Force constants in Cartesian coordinates: 
                1             2             3             4             5 
      1  0.501353D+00
      2  0.174911D-01  0.531720D+00
      3 -0.324330D-01 -0.130311D-01  0.546430D+00
      4 -0.175128D+00  0.300792D-01 -0.581821D-01  0.781574D+00
      5  0.266996D-01 -0.855483D-01  0.250072D-01  0.691872D-01  0.266704D+00
      6 -0.520817D-01  0.251350D-01 -0.119591D+00 -0.101012D+00 -0.208232D+00
      7 -0.323911D-01 -0.435781D-02  0.635002D-02 -0.490374D+00 -0.840653D-01
      8  0.776714D-02  0.852558D-02 -0.115941D-02 -0.838254D-01 -0.830065D-01
      9 -0.155359D-01 -0.161766D-02  0.100534D-01  0.134689D+00  0.552119D-01
     10 -0.588562D-01 -0.263815D-01  0.471881D-01  0.627428D-02  0.145991D-01
     11 -0.250288D-01 -0.107062D+00  0.106666D+00 -0.159470D-02 -0.499964D-02
     12  0.447465D-01  0.106615D+00 -0.238196D+00  0.314831D-02  0.801517D-02
     13 -0.123953D+00  0.866911D-01  0.844006D-01 -0.208188D-01  0.153878D-01
     14  0.865648D-01 -0.134208D+00 -0.855503D-01  0.369723D-02 -0.321623D-02
     15  0.821550D-01 -0.843897D-01 -0.132056D+00 -0.921113D-02  0.110237D-01
     16 -0.115563D+00 -0.113834D+00 -0.285883D-01 -0.200438D-01 -0.230300D-01
     17 -0.111884D+00 -0.216419D+00 -0.405030D-01  0.481116D-02  0.105157D-01
     18 -0.296338D-01 -0.417325D-01 -0.582350D-01 -0.792571D-02 -0.132862D-01
     19  0.439116D-02  0.129782D-01 -0.233536D-01 -0.595006D-01 -0.133471D-01
     20 -0.147956D-02 -0.122451D-02  0.661773D-02 -0.154194D-01 -0.106765D+00
     21  0.274316D-02  0.716414D-02 -0.103551D-01  0.271498D-01  0.117417D+00
     22 -0.161627D-02 -0.192118D-02  0.289312D-02 -0.204671D-01  0.949012D-02
     23 -0.107430D-02  0.102231D-01  0.603547D-02 -0.668812D-02  0.474476D-02
     24  0.136447D-02  0.600346D-02  0.280440D-02  0.111781D-01 -0.244372D-02
     25  0.176353D-02 -0.745262D-03  0.172513D-02 -0.151555D-02 -0.149214D-01
     26  0.944326D-03 -0.600707D-02 -0.408241D-02 -0.247239D-03  0.157189D-02
     27 -0.132463D-02 -0.414627D-02 -0.854425D-03  0.165197D-03  0.728740D-02
                6             7             8             9            10 
      6  0.521942D+00
      7  0.135122D+00  0.820986D+00
      8  0.552209D-01  0.457283D-01  0.236513D+00
      9 -0.145228D+00 -0.554824D-01 -0.235598D+00  0.528198D+00
     10 -0.260822D-01  0.189702D-02  0.525537D-03 -0.858496D-03  0.630430D-01
     11  0.740314D-02 -0.748501D-03  0.567029D-04 -0.101038D-02  0.269410D-01
     12 -0.152135D-01  0.144119D-02 -0.962229D-03  0.130394D-02 -0.479550D-01
     13  0.166299D-01 -0.114806D-02  0.174592D-02 -0.339673D-02 -0.409341D-02
     14 -0.369194D-02 -0.737186D-04 -0.350243D-03  0.981587D-03 -0.984540D-02
     15  0.120746D-01 -0.151563D-02  0.738774D-04 -0.818451D-03  0.142293D-01
     16 -0.461443D-02 -0.118012D-02  0.190572D-02 -0.328286D-02 -0.398697D-02
     17  0.203984D-02  0.129282D-02 -0.108473D-03 -0.943819D-04 -0.653807D-02
     18 -0.243236D-02 -0.773162D-03  0.905262D-03 -0.102816D-02  0.149718D-01
     19  0.234093D-01 -0.207205D-02 -0.158971D-01  0.283691D-01 -0.447813D-02
     20  0.117338D+00 -0.234791D-03  0.212163D-02  0.798080D-02  0.132533D-02
     21 -0.252351D+00  0.980225D-04  0.738886D-02 -0.678548D-02 -0.263156D-02
     22 -0.180242D-01 -0.232841D+00  0.608439D-01 -0.117369D+00  0.326983D-03
     23 -0.305516D-02  0.633525D-01 -0.606446D-01  0.518354D-01 -0.141135D-03
     24  0.802569D-02 -0.121897D+00  0.517406D-01 -0.131254D+00  0.274613D-03
     25  0.266525D-01 -0.628764D-01 -0.187941D-01  0.328669D-01 -0.126570D-03
     26  0.784199D-02 -0.208935D-01 -0.103107D+00  0.122311D+00 -0.484980D-03
     27 -0.722619D-02  0.366565D-01  0.122390D+00 -0.254441D+00  0.863321D-03
               11            12            13            14            15 
     11  0.111844D+00
     12 -0.119282D+00  0.258693D+00
     13  0.325973D-02  0.328055D-02  0.139507D+00
     14  0.103208D-01  0.876067D-02 -0.956732D-01  0.144077D+00
     15 -0.169352D-01 -0.149240D-01 -0.896865D-01  0.955422D-01  0.140203D+00
     16 -0.466665D-02 -0.111257D-02  0.104107D-01  0.151696D-01  0.354198D-02
     17 -0.118610D-01 -0.343919D-02 -0.100927D-01 -0.171458D-01 -0.395123D-02
     18  0.228227D-01  0.715140D-02 -0.101954D-01 -0.162790D-01 -0.467042D-02
     19  0.136331D-02 -0.270011D-02  0.803016D-03  0.892067D-04  0.930992D-03
     20  0.142485D-02  0.823218D-03 -0.394926D-03  0.201052D-03 -0.355074D-03
     21  0.824654D-03  0.265180D-03 -0.610400D-03  0.374354D-03  0.316951D-03
     22 -0.135784D-04  0.443687D-04 -0.797987D-03  0.529234D-04 -0.264149D-03
     23 -0.401040D-04 -0.291203D-03 -0.215885D-02  0.274736D-03 -0.101489D-02
     24 -0.286382D-03  0.328832D-03 -0.105813D-02 -0.970437D-04 -0.282686D-03
     25  0.488135D-03 -0.893185D-03  0.906191D-04  0.185274D-04 -0.179973D-03
     26  0.315743D-03 -0.239581D-03  0.123515D-02  0.467153D-04  0.629117D-05
     27 -0.202803D-03  0.591863D-03  0.635956D-03 -0.405696D-04  0.157684D-03
               16            17            18            19            20 
     16  0.130315D+00
     17  0.122884D+00  0.235206D+00
     18  0.334727D-01  0.468363D-01  0.582663D-01
     19  0.798156D-03 -0.812840D-03  0.417665D-03  0.635868D-01
     20  0.737391D-03  0.290060D-03  0.343211D-03  0.166590D-01  0.100432D+00
     21  0.347118D-04 -0.426509D-03  0.232803D-03 -0.286548D-01 -0.133471D+00
     22 -0.888215D-03  0.195393D-03 -0.226468D-03  0.996826D-03  0.215785D-04
     23  0.202529D-02 -0.554393D-03  0.495804D-03  0.236326D-03 -0.569711D-02
     24  0.125680D-02 -0.407606D-03  0.636670D-03 -0.911817D-04 -0.393480D-02
     25  0.138791D-03  0.144195D-03 -0.107656D-03 -0.452518D-02 -0.121468D-02
     26 -0.119187D-02  0.774230D-04 -0.105511D-03 -0.126895D-02  0.921689D-02
     27 -0.707984D-03 -0.541361D-04  0.788043D-04  0.167264D-02  0.465785D-02
               21            22            23            24            25 
     21  0.265977D+00
     22  0.296444D-03  0.249371D+00
     23 -0.392669D-02 -0.664413D-01  0.530780D-01
     24 -0.778452D-03  0.128473D+00 -0.562833D-01  0.129737D+00
     25  0.157469D-02  0.591599D-02  0.108895D-01 -0.195014D-01  0.611348D-01
     26  0.465579D-02 -0.222788D-02 -0.138445D-02  0.570889D-02  0.241349D-01
     27  0.347844D-02  0.417602D-02  0.620465D-02 -0.921682D-02 -0.421370D-01
               26            27 
     26  0.992695D-01
     27 -0.136096D+00  0.267432D+00
 FormGI is forming the generalized inverse of G from B-inverse, IUseBI=4.
 Force constants in internal coordinates: 
                1             2             3             4             5 
      1  0.303011D+00
      2  0.503178D-02  0.336385D+00
      3  0.795205D-02  0.272895D-02  0.328620D+00
      4  0.795205D-02  0.272895D-02  0.394747D-02  0.328620D+00
      5  0.164001D-01  0.891913D-03 -0.933211D-03 -0.933211D-03  0.625373D+00
      6  0.610279D-02 -0.644593D-03  0.567587D-03  0.567587D-03  0.766346D-02
      7 -0.559593D-03 -0.234027D-03  0.249422D-03  0.249422D-03  0.587959D-02
      8  0.382325D-03  0.666176D-03 -0.857490D-04 -0.857490D-04  0.725076D-02
      9  0.158150D-01  0.199931D-02 -0.591922D-02 -0.591922D-02 -0.350579D-02
     10  0.145961D-01 -0.604770D-02  0.260748D-02 -0.660301D-02  0.238655D-02
     11  0.145961D-01 -0.604770D-02 -0.660301D-02  0.260748D-02  0.238655D-02
     12 -0.150020D-01  0.570820D-02  0.540786D-02 -0.986814D-03 -0.819851D-05
     13 -0.150020D-01  0.570820D-02 -0.986814D-03  0.540786D-02 -0.819851D-05
     14 -0.178774D-01 -0.902861D-03  0.622908D-02  0.622908D-02 -0.124700D-02
     15  0.194411D-01 -0.544721D-02  0.294561D-02  0.294561D-02  0.130168D-01
     16  0.541427D-02  0.484758D-02 -0.126921D-02 -0.126921D-02 -0.244034D-01
     17 -0.248554D-01  0.599626D-03 -0.167640D-02 -0.167640D-02  0.113865D-01
     18  0.450088D-02 -0.112841D-03  0.462893D-03  0.462893D-03  0.116831D-01
     19 -0.425420D-02  0.946102D-03 -0.380215D-03 -0.380215D-03  0.990190D-02
     20 -0.246682D-03 -0.833260D-03 -0.826775D-04 -0.826776D-04 -0.215850D-01
     21  0.000000D+00  0.000000D+00  0.471769D-02 -0.471769D-02  0.000000D+00
     22  0.000000D+00  0.000000D+00  0.422471D-02 -0.422471D-02  0.000000D+00
     23 -0.175750D-02 -0.446969D-02  0.750950D-04  0.513746D-02  0.760994D-03
     24 -0.175750D-02 -0.446969D-02 -0.417883D-03  0.563043D-02  0.760994D-03
     25  0.175750D-02  0.446969D-02 -0.513746D-02 -0.750950D-04 -0.760994D-03
     26  0.175750D-02  0.446969D-02 -0.563043D-02  0.417883D-03 -0.760994D-03
     27  0.000000D+00  0.000000D+00 -0.102010D-02  0.102010D-02  0.000000D+00
     28  0.000000D+00  0.000000D+00 -0.901651D-03  0.901651D-03  0.000000D+00
     29  0.000000D+00  0.000000D+00 -0.514201D-03  0.514201D-03  0.000000D+00
     30  0.000000D+00  0.000000D+00 -0.395751D-03  0.395751D-03  0.000000D+00
                6             7             8             9            10 
      6  0.344172D+00
      7  0.941320D-03  0.355891D+00
      8 -0.215621D-03  0.208419D-02  0.351455D+00
      9  0.355177D-02 -0.922747D-03  0.165958D-02  0.103640D+00
     10 -0.616818D-03  0.683658D-03 -0.200062D-03 -0.217130D-01  0.100719D+00
     11 -0.616818D-03  0.683658D-03 -0.200062D-03 -0.217130D-01 -0.169062D-01
     12 -0.116239D-02  0.111326D-03 -0.676311D-03 -0.381139D-01 -0.376243D-01
     13 -0.116239D-02  0.111326D-03 -0.676311D-03 -0.381139D-01  0.101443D-01
     14 -0.196370D-03 -0.677858D-03 -0.862397D-05  0.107446D-01 -0.377397D-01
     15 -0.127818D-01  0.486311D-02 -0.525342D-02 -0.125722D-01  0.916596D-02
     16  0.593618D-02 -0.159934D-02 -0.299539D-03  0.152097D-01 -0.767745D-02
     17  0.684558D-02 -0.326378D-02  0.555296D-02 -0.263757D-02 -0.148851D-02
     18 -0.319459D-02  0.517574D-02 -0.124380D-01 -0.370404D-03  0.113559D-02
     19  0.421155D-02 -0.117228D-01  0.625733D-02  0.337274D-03 -0.552752D-03
     20 -0.101696D-02  0.654708D-02  0.618072D-02  0.331302D-04 -0.582835D-03
     21  0.000000D+00  0.000000D+00  0.000000D+00  0.000000D+00  0.826434D-02
     22  0.000000D+00  0.000000D+00  0.000000D+00  0.000000D+00  0.543059D-02
     23 -0.521102D-03  0.174406D-04 -0.134573D-03 -0.729925D-02  0.160014D-02
     24 -0.521102D-03  0.174406D-04 -0.134573D-03 -0.729925D-02 -0.123360D-02
     25  0.521102D-03 -0.174406D-04  0.134573D-03  0.729925D-02 -0.530596D-02
     26  0.521102D-03 -0.174406D-04  0.134573D-03  0.729925D-02 -0.813971D-02
     27  0.000000D+00  0.000000D+00  0.000000D+00  0.000000D+00 -0.528623D-02
     28  0.000000D+00  0.000000D+00  0.000000D+00  0.000000D+00 -0.316502D-02
     29  0.000000D+00  0.000000D+00  0.000000D+00  0.000000D+00 -0.237820D-02
     30  0.000000D+00  0.000000D+00  0.000000D+00  0.000000D+00 -0.257001D-03
               11            12            13            14            15 
     11  0.100719D+00
     12  0.101443D-01  0.555551D-01
     13 -0.376243D-01  0.747275D-02  0.555551D-01
     14 -0.377397D-01  0.677980D-02  0.677980D-02  0.550073D-01
     15  0.916596D-02  0.546811D-03  0.546811D-03 -0.694243D-02  0.113692D+00
     16 -0.767745D-02 -0.240645D-02 -0.240645D-02  0.467128D-02 -0.556810D-01
     17 -0.148851D-02  0.185964D-02  0.185964D-02  0.227115D-02 -0.580112D-01
     18  0.113559D-02 -0.527238D-03 -0.527238D-03 -0.945287D-03  0.923258D-02
     19 -0.552752D-03  0.142305D-03  0.142305D-03  0.521493D-03 -0.750676D-02
     20 -0.582835D-03  0.384933D-03  0.384933D-03  0.423794D-03 -0.172582D-02
     21 -0.826434D-02  0.909664D-02 -0.909664D-02  0.000000D+00  0.000000D+00
     22 -0.543059D-02  0.100414D-01 -0.100414D-01  0.000000D+00  0.000000D+00
     23  0.530596D-02 -0.969864D-02  0.436355D-03  0.100382D-01  0.157599D-02
     24  0.813971D-02 -0.875388D-02 -0.508402D-03  0.100382D-01  0.157599D-02
     25 -0.160014D-02 -0.436355D-03  0.969864D-02 -0.100382D-01 -0.157599D-02
     26  0.123360D-02  0.508402D-03  0.875388D-02 -0.100382D-01 -0.157599D-02
     27  0.528623D-02  0.130460D-02 -0.130460D-02  0.000000D+00  0.000000D+00
     28  0.316502D-02  0.690628D-03 -0.690628D-03  0.000000D+00  0.000000D+00
     29  0.237820D-02  0.335082D-03 -0.335082D-03  0.000000D+00  0.000000D+00
     30  0.257001D-03 -0.278894D-03  0.278894D-03  0.000000D+00  0.000000D+00
               16            17            18            19            20 
     16  0.904126D-01
     17 -0.347317D-01  0.927429D-01
     18 -0.104486D-02 -0.818772D-02  0.800894D-01
     19 -0.208543D-02  0.959219D-02 -0.445297D-01  0.803316D-01
     20  0.313030D-02 -0.140447D-02 -0.355597D-01 -0.358019D-01  0.713616D-01
     21  0.000000D+00  0.000000D+00  0.000000D+00  0.000000D+00  0.000000D+00
     22  0.000000D+00  0.000000D+00  0.000000D+00  0.000000D+00  0.000000D+00
     23 -0.203545D-02  0.459457D-03  0.141974D-03 -0.307201D-04 -0.111254D-03
     24 -0.203545D-02  0.459457D-03  0.141974D-03 -0.307201D-04 -0.111254D-03
     25  0.203545D-02 -0.459457D-03 -0.141974D-03  0.307201D-04  0.111254D-03
     26  0.203545D-02 -0.459457D-03 -0.141974D-03  0.307201D-04  0.111254D-03
     27  0.000000D+00  0.000000D+00  0.000000D+00  0.000000D+00  0.000000D+00
     28  0.000000D+00  0.000000D+00  0.000000D+00  0.000000D+00  0.000000D+00
     29  0.000000D+00  0.000000D+00  0.000000D+00  0.000000D+00  0.000000D+00
     30  0.000000D+00  0.000000D+00  0.000000D+00  0.000000D+00  0.000000D+00
               21            22            23            24            25 
     21  0.142026D-01
     22  0.981735D-02  0.135020D-01
     23 -0.308541D-02 -0.672068D-02  0.131571D-01
     24 -0.747069D-02 -0.303608D-02  0.952180D-02  0.139564D-01
     25 -0.308541D-02 -0.672068D-02 -0.385975D-02 -0.749503D-02  0.131571D-01
     26 -0.747069D-02 -0.303608D-02 -0.749503D-02 -0.306043D-02  0.952180D-02
     27 -0.371841D-02  0.171950D-02 -0.173603D-02  0.370188D-02 -0.173603D-02
     28 -0.195606D-02  0.956532D-03 -0.653863D-03  0.225873D-02 -0.653863D-03
     29  0.781814D-03 -0.206169D-02  0.199454D-02 -0.848966D-03  0.199454D-02
     30  0.254417D-02 -0.282465D-02  0.307670D-02 -0.229212D-02  0.307670D-02
               26            27            28            29            30 
     26  0.139564D-01
     27  0.370188D-02  0.211818D-01
     28  0.225873D-02  0.771159D-03  0.187090D-01
     29 -0.848966D-03  0.156014D-01 -0.221778D-02  0.185194D-01
     30 -0.229212D-02 -0.480929D-02  0.157201D-01  0.700262D-03  0.212296D-01
 Leave Link  716 at Sat Feb 16 14:05:27 2019, MaxMem=   196608000 cpu:         0.7
 (Enter /cm/shared/c3ddb/gaussian/09.d01/g09/l103.exe)

 GradGradGradGradGradGradGradGradGradGradGradGradGradGradGradGradGradGrad
 Berny optimization.
 Red2BG is reusing G-inverse.
 Internal  Forces:  Max     0.000093723 RMS     0.000026468
 Search for a local minimum.
 Step number   1 out of a maximum of   40 on scan point     1 out of    37
 All quantities printed in internal units (Hartrees-Bohrs-Radians)
 RMS Force = .26921D-04 SwitMx=.10000D-02 MixMth= 2
 Mixed Optimization -- En-DIIS/RFO-DIIS
 Second derivative matrix not updated -- analytic derivatives used.
 ITU=  0
     Eigenvalues ---    0.01267   0.03033   0.03653   0.03957   0.05776
     Eigenvalues ---    0.10438   0.11122   0.12031   0.12207   0.14255
     Eigenvalues ---    0.14450   0.18214   0.31300   0.32533   0.33328
     Eigenvalues ---    0.34199   0.34649   0.35265   0.35726   0.62996
     Eigenvalues --- 1000.000001000.000001000.000001000.000001000.00000
     Eigenvalues --- 1000.000001000.000001000.000001000.000001000.00000
 RFO step:  Lambda=-1.44486422D-07 EMin= 1.26674225D-02
 Linear search not attempted -- first point.
 Iteration  1 RMS(Cart)=  0.00057090 RMS(Int)=  0.00000016
 Iteration  2 RMS(Cart)=  0.00000018 RMS(Int)=  0.00000001
 Iteration  1 RMS(Cart)=  0.00000009 RMS(Int)=  0.00000012
 ITry= 1 IFail=0 DXMaxC= 1.89D-03 DCOld= 1.00D+10 DXMaxT= 3.00D-01 DXLimC= 3.00D+00 Rises=F
 ClnCor:  largest displacement from symmetrization is 3.33D-07 for atom     4.
 Variable       Old X    -DE/DX   Delta X   Delta X   Delta X     New X
                                 (Linear)    (Quad)   (Total)
    R1        2.83539  -0.00003   0.00000  -0.00008  -0.00008   2.83531
    R2        2.06456   0.00002   0.00000   0.00005   0.00005   2.06461
    R3        2.07058   0.00002   0.00000   0.00007   0.00007   2.07065
    R4        2.07058   0.00002   0.00000   0.00007   0.00007   2.07065
    R5        2.51217  -0.00001   0.00000   0.00001   0.00001   2.51218
    R6        2.05769   0.00000   0.00000  -0.00004  -0.00004   2.05765
    R7        2.04877   0.00002   0.00000   0.00004   0.00004   2.04880
    R8        2.05264  -0.00002   0.00000  -0.00005  -0.00005   2.05259
    A1        1.94728  -0.00003   0.00000  -0.00031  -0.00031   1.94697
    A2        1.93808   0.00002   0.00000   0.00022   0.00022   1.93830
    A3        1.93808   0.00002   0.00000   0.00022   0.00022   1.93830
    A4        1.88837   0.00000   0.00000  -0.00005  -0.00005   1.88832
    A5        1.88837   0.00000   0.00000  -0.00005  -0.00005   1.88832
    A6        1.86049  -0.00001   0.00000  -0.00004  -0.00004   1.86045
    A7        2.18756  -0.00009   0.00000  -0.00063  -0.00063   2.18693
    A8        2.02279   0.00006   0.00000   0.00041   0.00041   2.02320
    A9        2.07284   0.00004   0.00000   0.00022   0.00022   2.07306
   A10        2.12323   0.00002   0.00000   0.00023   0.00023   2.12346
   A11        2.12249  -0.00004   0.00000  -0.00039  -0.00039   2.12210
   A12        2.03747   0.00002   0.00000   0.00016   0.00016   2.03763
    D1        0.00000   0.00000   0.00000   0.00000   0.00000   0.00000
    D2        3.14159   0.00000   0.00000   0.00000   0.00000   3.14159
    D3       -2.10816   0.00001   0.00000   0.00012   0.00012  -2.10804
    D4        1.03343   0.00001   0.00000   0.00012   0.00012   1.03355
    D5        2.10816  -0.00001   0.00000  -0.00012  -0.00012   2.10804
    D6       -1.03343  -0.00001   0.00000  -0.00012  -0.00012  -1.03355
    D7        3.14159   0.00000   0.00000   0.00000   0.00000  -3.14159
    D8        0.00000   0.00000   0.00000   0.00000   0.00000   0.00000
    D9        0.00000   0.00000   0.00000   0.00000   0.00000   0.00000
   D10        3.14159   0.00000   0.00000   0.00000   0.00000   3.14159
         Item               Value     Threshold  Converged?
 Maximum Force            0.000094     0.000450     YES
 RMS     Force            0.000027     0.000300     YES
 Maximum Displacement     0.001889     0.001800     NO 
 RMS     Displacement     0.000571     0.001200     YES
 Predicted change in Energy=-7.224321D-08
 Lowest energy point so far.  Saving SCF results.
 GradGradGradGradGradGradGradGradGradGradGradGradGradGradGradGradGradGrad

 Leave Link  103 at Sat Feb 16 14:05:29 2019, MaxMem=   196608000 cpu:        15.8
 (Enter /cm/shared/c3ddb/gaussian/09.d01/g09/l202.exe)
                          Input orientation:                          
 ---------------------------------------------------------------------
 Center     Atomic      Atomic             Coordinates (Angstroms)
 Number     Number       Type             X           Y           Z
 ---------------------------------------------------------------------
      1          6           0       -1.102688    0.120792   -0.259708
      2          6           0        0.161617   -0.250300    0.457908
      3          6           0        1.392821    0.012165    0.030683
      4          1           0       -0.894063    0.643844   -1.195950
      5          1           0       -1.732142    0.768246    0.360967
      6          1           0       -1.699967   -0.768424   -0.490358
      7          1           0        0.035685   -0.776445    1.402859
      8          1           0        2.267566   -0.284125    0.598556
      9          1           0        1.571169    0.534248   -0.904955
 ---------------------------------------------------------------------
                    Distance matrix (angstroms):
                    1          2          3          4          5
     1  C    0.000000
     2  C    1.500383   0.000000
     3  C    2.514695   1.329387   0.000000
     4  H    1.092546   2.156201   2.670859   0.000000
     5  H    1.095740   2.152477   3.232048   1.772524   0.000000
     6  H    1.095740   2.152477   3.232048   1.772524   1.757028
     7  H    2.205688   1.088862   2.084848   3.104105   2.568429
     8  H    3.501312   2.110911   1.084180   3.751970   4.142655
     9  H    2.781511   2.111811   1.086184   2.484766   3.545303
                    6          7          8          9
     6  H    0.000000
     7  H    2.568429   0.000000
     8  H    4.142655   2.422927   0.000000
     9  H    3.545303   3.066209   1.848039   0.000000
 Stoichiometry    C3H6
 Framework group  CS[SG(C3H4),X(H2)]
 Deg. of freedom    14
 Full point group                 CS      NOp   2
 RotChk:  IX=2 Diff= 2.56D-01
 Largest Abelian subgroup         CS      NOp   2
 Largest concise Abelian subgroup CS      NOp   2
                         Standard orientation:                         
 ---------------------------------------------------------------------
 Center     Atomic      Atomic             Coordinates (Angstroms)
 Number     Number       Type             X           Y           Z
 ---------------------------------------------------------------------
      1          6           0       -1.136341   -0.506606    0.000000
      2          6           0        0.000000    0.473128    0.000000
      3          6           0        1.290285    0.153073    0.000000
      4          1           0       -0.776783   -1.538292    0.000000
      5          1           0       -1.776233   -0.367329   -0.878514
      6          1           0       -1.776233   -0.367329    0.878514
      7          1           0       -0.278999    1.525640    0.000000
      8          1           0        2.064852    0.911686    0.000000
      9          1           0        1.619730   -0.881945    0.000000
 ---------------------------------------------------------------------
 Rotational constants (GHZ):     47.0160287      9.2795085      8.1382001
 Leave Link  202 at Sat Feb 16 14:05:29 2019, MaxMem=   196608000 cpu:         0.4
 (Enter /cm/shared/c3ddb/gaussian/09.d01/g09/l301.exe)
 Standard basis: 6-311G(2d,d,p) (5D, 7F)
 Ernie: Thresh=  0.10000D-02 Tol=  0.10000D-05 Strict=F.
 There are    68 symmetry adapted cartesian basis functions of A'  symmetry.
 There are    25 symmetry adapted cartesian basis functions of A"  symmetry.
 There are    65 symmetry adapted basis functions of A'  symmetry.
 There are    25 symmetry adapted basis functions of A"  symmetry.
    90 basis functions,   144 primitive gaussians,    93 cartesian basis functions
    12 alpha electrons       12 beta electrons
       nuclear repulsion energy        70.7325033973 Hartrees.
 IExCor=  402 DFT=T Ex+Corr=B3LYP ExCW=0 ScaHFX=  0.200000
 ScaDFX=  0.800000  0.720000  1.000000  0.810000 ScalE2=  1.000000  1.000000
 IRadAn=      0 IRanWt=     -1 IRanGd=            0 ICorTp=0 IEmpDi=  4
 NAtoms=    9 NActive=    9 NUniq=    8 SFac= 1.27D+00 NAtFMM=   60 NAOKFM=F Big=F
 Integral buffers will be    131072 words long.
 Raffenetti 2 integral format.
 Two-electron integral symmetry is turned on.
 Leave Link  301 at Sat Feb 16 14:05:29 2019, MaxMem=   196608000 cpu:         1.2
 (Enter /cm/shared/c3ddb/gaussian/09.d01/g09/l302.exe)
 NPDir=0 NMtPBC=     1 NCelOv=     1 NCel=       1 NClECP=     1 NCelD=      1
         NCelK=      1 NCelE2=     1 NClLst=     1 CellRange=     0.0.
 One-electron integrals computed using PRISM.
 One-electron integral symmetry used in STVInt
 NBasis=    90 RedAO= T EigKep=  3.40D-03  NBF=    65    25
 NBsUse=    90 1.00D-06 EigRej= -1.00D+00 NBFU=    65    25
 Precomputing XC quadrature grid using
 IXCGrd= 4 IRadAn=           0 IRanWt=          -1 IRanGd=           0 AccXCQ= 0.00D+00.
 Generated NRdTot=       0 NPtTot=           0 NUsed=           0 NTot=          32
 NSgBfM=    93    93    93    93    93 MxSgAt=     9 MxSgA2=     9.
 Leave Link  302 at Sat Feb 16 14:05:31 2019, MaxMem=   196608000 cpu:        12.0
 (Enter /cm/shared/c3ddb/gaussian/09.d01/g09/l303.exe)
 DipDrv:  MaxL=1.
 Leave Link  303 at Sat Feb 16 14:05:31 2019, MaxMem=   196608000 cpu:         1.1
 (Enter /cm/shared/c3ddb/gaussian/09.d01/g09/l401.exe)
 Initial guess from the checkpoint file:  "check.chk"
 B after Tr=     0.000000    0.000000    0.000000
         Rot=    0.995910    0.000000    0.000000   -0.090346 Ang= -10.37 deg.
 Guess basis will be translated and rotated to current coordinates.
 JPrj=2 DoOrth=T DoCkMO=T.
 Initial guess orbital symmetries:
       Occupied  (A') (A') (A') (A') (A') (A') (A') (A') (A") (A')
                 (A') (A")
       Virtual   (A') (A') (A') (A') (A') (A') (A') (A') (A') (A')
                 (A') (A') (A') (A') (A') (A') (A') (A') (A') (A')
                 (A') (A') (A') (A') (A') (A') (A') (A') (A') (A')
                 (A') (A') (A') (A') (A') (A') (A') (A') (A') (A')
                 (A') (A') (A') (A') (A') (A') (A') (A') (A') (A')
                 (A') (A') (A') (A') (A') (A") (A") (A") (A") (A")
                 (A") (A") (A") (A") (A") (A") (A") (A") (A") (A")
                 (A") (A") (A") (A") (A") (A") (A") (A")
 The electronic state of the initial guess is 1-A'.
 Leave Link  401 at Sat Feb 16 14:05:33 2019, MaxMem=   196608000 cpu:         8.6
 (Enter /cm/shared/c3ddb/gaussian/09.d01/g09/l502.exe)
 Closed shell SCF:
 Using DIIS extrapolation, IDIIS=  1040.
 Integral symmetry usage will be decided dynamically.
 Keep R1 ints in memory in symmetry-blocked form, NReq=12802219.
 IVT=       33471 IEndB=       33471 NGot=   196608000 MDV=   192192432
 LenX=   192192432 LenY=   192183342
 Requested convergence on RMS density matrix=1.00D-08 within  64 cycles.
 Requested convergence on MAX density matrix=1.00D-06.
 Requested convergence on             energy=1.00D-06.
 No special actions if energy rises.
 FoFCou: FMM=F IPFlag=           0 FMFlag=           0 FMFlg1=           0
         NFxFlg=           0 DoJE=F BraDBF=F KetDBF=F FulRan=T
         wScrn=  0.000000 ICntrl=     600 IOpCl=  0 I1Cent=           0 NGrid=           0
         NMat0=    1 NMatS0=   4095 NMatT0=    0 NMatD0=    1 NMtDS0=    0 NMtDT0=    0
 Petite list used in FoFCou.

 Cycle   1  Pass 1  IDiag  1:
 E= -117.944056482898    
 DIIS: error= 3.18D-05 at cycle   1 NSaved=   1.
 NSaved= 1 IEnMin= 1 EnMin= -117.944056482898     IErMin= 1 ErrMin= 3.18D-05
 ErrMax= 3.18D-05  0.00D+00 EMaxC= 1.00D-01 BMatC= 1.03D-07 BMatP= 1.03D-07
 IDIUse=1 WtCom= 1.00D+00 WtEn= 0.00D+00
 Coeff-Com:  0.100D+01
 Coeff:      0.100D+01
 Gap=     0.695 Goal=   None    Shift=    0.000
 RMSDP=3.44D-06 MaxDP=3.34D-05              OVMax= 1.30D-04

 Cycle   2  Pass 1  IDiag  1:
 E= -117.944056637758     Delta-E=       -0.000000154860 Rises=F Damp=F
 DIIS: error= 3.92D-06 at cycle   2 NSaved=   2.
 NSaved= 2 IEnMin= 2 EnMin= -117.944056637758     IErMin= 2 ErrMin= 3.92D-06
 ErrMax= 3.92D-06  0.00D+00 EMaxC= 1.00D-01 BMatC= 1.28D-09 BMatP= 1.03D-07
 IDIUse=1 WtCom= 1.00D+00 WtEn= 0.00D+00
 Coeff-Com: -0.551D-01 0.106D+01
 Coeff:     -0.551D-01 0.106D+01
 Gap=     0.274 Goal=   None    Shift=    0.000
 RMSDP=5.12D-07 MaxDP=1.00D-05 DE=-1.55D-07 OVMax= 1.88D-05

 Cycle   3  Pass 1  IDiag  1:
 E= -117.944056638829     Delta-E=       -0.000000001071 Rises=F Damp=F
 DIIS: error= 3.50D-06 at cycle   3 NSaved=   3.
 NSaved= 3 IEnMin= 3 EnMin= -117.944056638829     IErMin= 3 ErrMin= 3.50D-06
 ErrMax= 3.50D-06  0.00D+00 EMaxC= 1.00D-01 BMatC= 9.28D-10 BMatP= 1.28D-09
 IDIUse=1 WtCom= 1.00D+00 WtEn= 0.00D+00
 Coeff-Com: -0.353D-01 0.521D+00 0.515D+00
 Coeff:     -0.353D-01 0.521D+00 0.515D+00
 Gap=     0.274 Goal=   None    Shift=    0.000
 RMSDP=2.30D-07 MaxDP=5.60D-06 DE=-1.07D-09 OVMax= 1.18D-05

 Cycle   4  Pass 1  IDiag  1:
 E= -117.944056639639     Delta-E=       -0.000000000810 Rises=F Damp=F
 DIIS: error= 1.36D-06 at cycle   4 NSaved=   4.
 NSaved= 4 IEnMin= 4 EnMin= -117.944056639639     IErMin= 4 ErrMin= 1.36D-06
 ErrMax= 1.36D-06  0.00D+00 EMaxC= 1.00D-01 BMatC= 5.42D-11 BMatP= 9.28D-10
 IDIUse=1 WtCom= 1.00D+00 WtEn= 0.00D+00
 Coeff-Com: -0.127D-01 0.168D+00 0.244D+00 0.601D+00
 Coeff:     -0.127D-01 0.168D+00 0.244D+00 0.601D+00
 Gap=     0.274 Goal=   None    Shift=    0.000
 RMSDP=8.31D-08 MaxDP=1.53D-06 DE=-8.10D-10 OVMax= 5.78D-06

 Cycle   5  Pass 1  IDiag  1:
 E= -117.944056639682     Delta-E=       -0.000000000043 Rises=F Damp=F
 DIIS: error= 5.45D-07 at cycle   5 NSaved=   5.
 NSaved= 5 IEnMin= 5 EnMin= -117.944056639682     IErMin= 5 ErrMin= 5.45D-07
 ErrMax= 5.45D-07  0.00D+00 EMaxC= 1.00D-01 BMatC= 1.30D-11 BMatP= 5.42D-11
 IDIUse=1 WtCom= 1.00D+00 WtEn= 0.00D+00
 Coeff-Com: -0.219D-02 0.210D-01 0.644D-01 0.361D+00 0.556D+00
 Coeff:     -0.219D-02 0.210D-01 0.644D-01 0.361D+00 0.556D+00
 Gap=     0.274 Goal=   None    Shift=    0.000
 RMSDP=3.07D-08 MaxDP=5.18D-07 DE=-4.29D-11 OVMax= 2.23D-06

 Cycle   6  Pass 1  IDiag  1:
 E= -117.944056639695     Delta-E=       -0.000000000014 Rises=F Damp=F
 DIIS: error= 1.18D-07 at cycle   6 NSaved=   6.
 NSaved= 6 IEnMin= 6 EnMin= -117.944056639695     IErMin= 6 ErrMin= 1.18D-07
 ErrMax= 1.18D-07  0.00D+00 EMaxC= 1.00D-01 BMatC= 9.29D-13 BMatP= 1.30D-11
 IDIUse=1 WtCom= 1.00D+00 WtEn= 0.00D+00
 Coeff-Com:  0.363D-03-0.892D-02 0.497D-02 0.120D+00 0.286D+00 0.598D+00
 Coeff:      0.363D-03-0.892D-02 0.497D-02 0.120D+00 0.286D+00 0.598D+00
 Gap=     0.274 Goal=   None    Shift=    0.000
 RMSDP=7.73D-09 MaxDP=1.35D-07 DE=-1.35D-11 OVMax= 2.88D-07

 SCF Done:  E(RB3LYP) =  -117.944056640     A.U. after    6 cycles
            NFock=  6  Conv=0.77D-08     -V/T= 2.0051
 KE= 1.173504463739D+02 PE=-4.142883293636D+02 EE= 1.082613229527D+02
 Leave Link  502 at Sat Feb 16 14:05:39 2019, MaxMem=   196608000 cpu:        43.6
 (Enter /cm/shared/c3ddb/gaussian/09.d01/g09/l508.exe)
 QCSCF skips out because SCF is already converged.
 Leave Link  508 at Sat Feb 16 14:05:39 2019, MaxMem=   196608000 cpu:         0.0
 (Enter /cm/shared/c3ddb/gaussian/09.d01/g09/l701.exe)
 Compute integral first derivatives.
 ... and contract with generalized density number  0.
 Leave Link  701 at Sat Feb 16 14:05:40 2019, MaxMem=   196608000 cpu:         4.2
 (Enter /cm/shared/c3ddb/gaussian/09.d01/g09/l702.exe)
 L702 exits ... SP integral derivatives will be done elsewhere.
 Leave Link  702 at Sat Feb 16 14:05:40 2019, MaxMem=   196608000 cpu:         0.3
 (Enter /cm/shared/c3ddb/gaussian/09.d01/g09/l703.exe)
 Compute integral first derivatives, UseDBF=F ICtDFT=           0.
 Integral derivatives from FoFJK, PRISM(SPDF).
 Calling FoFJK, ICntrl=      2127 FMM=F ISym2X=1 I1Cent= 0 IOpClX= 0 NMat=1 NMatS=1 NMatT=0.
 FoFJK:  IHMeth= 1 ICntrl=    2127 DoSepK=F KAlg= 0 I1Cent=   0 FoldK=F
 IRaf=         0 NMat=   1 IRICut=       1 DoRegI=T DoRafI=F ISym2E= 1.
 FoFCou: FMM=F IPFlag=           0 FMFlag=      100000 FMFlg1=         800
         NFxFlg=           0 DoJE=F BraDBF=F KetDBF=F FulRan=T
         wScrn=  0.000000 ICntrl=    2127 IOpCl=  0 I1Cent=           0 NGrid=           0
         NMat0=    1 NMatS0=      1 NMatT0=    0 NMatD0=    1 NMtDS0=    0 NMtDT0=    0
 Petite list used in FoFCou.
 Leave Link  703 at Sat Feb 16 14:05:41 2019, MaxMem=   196608000 cpu:         7.3
 (Enter /cm/shared/c3ddb/gaussian/09.d01/g09/l716.exe)
 Dipole        =-1.49370205D-01-1.11744362D-02 4.59077009D-16
 ***** Axes restored to original set *****
 -------------------------------------------------------------------
 Center     Atomic                   Forces (Hartrees/Bohr)
 Number     Number              X              Y              Z
 -------------------------------------------------------------------
      1        6          -0.000065716    0.000003020   -0.000007934
      2        6           0.000075413    0.000025162   -0.000042568
      3        6          -0.000036854   -0.000028473    0.000050002
      4        1          -0.000016666   -0.000002377    0.000003660
      5        1           0.000015702   -0.000010696   -0.000000215
      6        1           0.000015345    0.000006352    0.000009230
      7        1          -0.000011767   -0.000005192    0.000008927
      8        1          -0.000008254    0.000001846   -0.000003644
      9        1           0.000032796    0.000010358   -0.000017458
 -------------------------------------------------------------------
 Cartesian Forces:  Max     0.000075413 RMS     0.000027236
 Leave Link  716 at Sat Feb 16 14:05:41 2019, MaxMem=   196608000 cpu:         0.3
 (Enter /cm/shared/c3ddb/gaussian/09.d01/g09/l103.exe)

 GradGradGradGradGradGradGradGradGradGradGradGradGradGradGradGradGradGrad
 Berny optimization.
 Using GEDIIS/GDIIS optimizer.
 FormGI is forming the generalized inverse of G from B-inverse, IUseBI=4.
 Internal  Forces:  Max     0.000092663 RMS     0.000026478
 Search for a local minimum.
 Step number   2 out of a maximum of   40 on scan point     1 out of    37
 All quantities printed in internal units (Hartrees-Bohrs-Radians)
 RMS Force = .26930D-04 SwitMx=.10000D-02 MixMth= 2
 Mixed Optimization -- En-DIIS/RFO-DIIS
 Swapping is turned off.
 Update second derivatives using D2CorX and points    2
 DE=  8.35D-07 DEPred=-7.22D-08 R=-1.16D+01
 Trust test=-1.16D+01 RLast= 1.06D-03 DXMaxT set to 1.50D-01
 ITU= -1  0
     Eigenvalues ---    0.01267   0.03033   0.03653   0.03957   0.05776
     Eigenvalues ---    0.10438   0.11122   0.12031   0.12207   0.14255
     Eigenvalues ---    0.14450   0.18214   0.31300   0.32533   0.33328
     Eigenvalues ---    0.34199   0.34649   0.35265   0.35726   0.62996
     Eigenvalues --- 1000.000001000.000001000.000001000.000001000.00000
     Eigenvalues --- 1000.000001000.000001000.000001000.000001000.00000
 En-DIIS/RFO-DIIS IScMMF=        0 using points:     2    1
 RFO step:  Lambda=-5.39645594D-08.
 NNeg= 0 NP= 2 Switch=  2.50D-03 Rises=F DC= -8.35D-07 SmlDif=  1.00D-05
 RMS Error=  0.6915329341D-04 NUsed= 2 EDIIS=F
 DidBck=T Rises=F RFO-DIIS coefs:    0.50089    0.49911
 Iteration  1 RMS(Cart)=  0.00027971 RMS(Int)=  0.00000004
 Iteration  2 RMS(Cart)=  0.00000004 RMS(Int)=  0.00000001
 Iteration  1 RMS(Cart)=  0.00000009 RMS(Int)=  0.00000012
 ITry= 1 IFail=0 DXMaxC= 9.20D-04 DCOld= 1.00D+10 DXMaxT= 1.50D-01 DXLimC= 3.00D+00 Rises=F
 ClnCor:  largest displacement from symmetrization is 3.39D-07 for atom     4.
 Variable       Old X    -DE/DX   Delta X   Delta X   Delta X     New X
                                 (Linear)    (Quad)   (Total)
    R1        2.83531   0.00004   0.00004   0.00002   0.00005   2.83537
    R2        2.06461  -0.00001  -0.00002   0.00001  -0.00001   2.06460
    R3        2.07065  -0.00002  -0.00004   0.00001  -0.00003   2.07062
    R4        2.07065  -0.00002  -0.00004   0.00001  -0.00003   2.07062
    R5        2.51218  -0.00002  -0.00001  -0.00003  -0.00004   2.51214
    R6        2.05765   0.00001   0.00002   0.00001   0.00003   2.05768
    R7        2.04880  -0.00001  -0.00002   0.00001  -0.00001   2.04880
    R8        2.05259   0.00003   0.00003   0.00001   0.00004   2.05263
    A1        1.94697   0.00003   0.00015   0.00000   0.00015   1.94712
    A2        1.93830  -0.00002  -0.00011   0.00000  -0.00011   1.93819
    A3        1.93830  -0.00002  -0.00011   0.00000  -0.00011   1.93819
    A4        1.88832   0.00000   0.00002   0.00000   0.00002   1.88834
    A5        1.88832   0.00000   0.00002   0.00000   0.00002   1.88834
    A6        1.86045   0.00001   0.00002   0.00001   0.00003   1.86047
    A7        2.18693   0.00009   0.00031   0.00000   0.00031   2.18724
    A8        2.02320  -0.00006  -0.00021  -0.00001  -0.00022   2.02298
    A9        2.07306  -0.00004  -0.00011   0.00001  -0.00009   2.07296
   A10        2.12346  -0.00002  -0.00011   0.00001  -0.00010   2.12335
   A11        2.12210   0.00004   0.00019   0.00000   0.00019   2.12229
   A12        2.03763  -0.00002  -0.00008  -0.00001  -0.00009   2.03754
    D1        0.00000   0.00000   0.00000   0.00000   0.00000   0.00000
    D2        3.14159   0.00000   0.00000   0.00000   0.00000   3.14159
    D3       -2.10804  -0.00001  -0.00006   0.00001  -0.00005  -2.10810
    D4        1.03355  -0.00001  -0.00006   0.00001  -0.00005   1.03349
    D5        2.10804   0.00001   0.00006  -0.00001   0.00005   2.10810
    D6       -1.03355   0.00001   0.00006  -0.00001   0.00005  -1.03349
    D7        3.14159   0.00000   0.00000   0.00000   0.00000   3.14159
    D8        0.00000   0.00000   0.00000   0.00000   0.00000   0.00000
    D9        0.00000   0.00000   0.00000   0.00000   0.00000   0.00000
   D10        3.14159   0.00000   0.00000   0.00000   0.00000   3.14159
         Item               Value     Threshold  Converged?
 Maximum Force            0.000093     0.000450     YES
 RMS     Force            0.000027     0.000300     YES
 Maximum Displacement     0.000920     0.001800     YES
 RMS     Displacement     0.000280     0.001200     YES
 Predicted change in Energy=-5.386262D-08
 Optimization completed.
    -- Stationary point found.
                           ----------------------------
                           !   Optimized Parameters   !
                           ! (Angstroms and Degrees)  !
 --------------------------                            --------------------------
 ! Name  Definition              Value          Derivative Info.                !
 --------------------------------------------------------------------------------
 ! R1    R(1,2)                  1.5004         -DE/DX =    0.0                 !
 ! R2    R(1,4)                  1.0925         -DE/DX =    0.0                 !
 ! R3    R(1,5)                  1.0957         -DE/DX =    0.0                 !
 ! R4    R(1,6)                  1.0957         -DE/DX =    0.0                 !
 ! R5    R(2,3)                  1.3294         -DE/DX =    0.0                 !
 ! R6    R(2,7)                  1.0889         -DE/DX =    0.0                 !
 ! R7    R(3,8)                  1.0842         -DE/DX =    0.0                 !
 ! R8    R(3,9)                  1.0862         -DE/DX =    0.0                 !
 ! A1    A(2,1,4)              111.5532         -DE/DX =    0.0                 !
 ! A2    A(2,1,5)              111.0565         -DE/DX =    0.0                 !
 ! A3    A(2,1,6)              111.0565         -DE/DX =    0.0                 !
 ! A4    A(4,1,5)              108.1929         -DE/DX =    0.0                 !
 ! A5    A(4,1,6)              108.1929         -DE/DX =    0.0                 !
 ! A6    A(5,1,6)              106.5958         -DE/DX =    0.0                 !
 ! A7    A(1,2,3)              125.3016         -DE/DX =    0.0001              !
 ! A8    A(1,2,7)              115.9209         -DE/DX =   -0.0001              !
 ! A9    A(3,2,7)              118.7775         -DE/DX =    0.0                 !
 ! A10   A(2,3,8)              121.6651         -DE/DX =    0.0                 !
 ! A11   A(2,3,9)              121.5872         -DE/DX =    0.0                 !
 ! A12   A(8,3,9)              116.7476         -DE/DX =    0.0                 !
 ! D1    D(4,1,2,3)              0.0            -DE/DX =    0.0                 !
 ! D2    D(4,1,2,7)            180.0            -DE/DX =    0.0                 !
 ! D3    D(5,1,2,3)           -120.7821         -DE/DX =    0.0                 !
 ! D4    D(5,1,2,7)             59.2179         -DE/DX =    0.0                 !
 ! D5    D(6,1,2,3)            120.7821         -DE/DX =    0.0                 !
 ! D6    D(6,1,2,7)            -59.2179         -DE/DX =    0.0                 !
 ! D7    D(1,2,3,8)            180.0            -DE/DX =    0.0                 !
 ! D8    D(1,2,3,9)              0.0            -DE/DX =    0.0                 !
 ! D9    D(7,2,3,8)              0.0            -DE/DX =    0.0                 !
 ! D10   D(7,2,3,9)            180.0            -DE/DX =    0.0                 !
 --------------------------------------------------------------------------------
 Iteration  1 RMS(Cart)=  0.01785991 RMS(Int)=  0.02344431
 Iteration  2 RMS(Cart)=  0.00087441 RMS(Int)=  0.02343499
 Iteration  3 RMS(Cart)=  0.00002609 RMS(Int)=  0.02343498
 Iteration  4 RMS(Cart)=  0.00000101 RMS(Int)=  0.02343498
 Iteration  5 RMS(Cart)=  0.00000004 RMS(Int)=  0.02343498
 Iteration  1 RMS(Cart)=  0.00966868 RMS(Int)=  0.01266664
 Iteration  2 RMS(Cart)=  0.00523765 RMS(Int)=  0.01414978
 Iteration  3 RMS(Cart)=  0.00283299 RMS(Int)=  0.01596468
 Iteration  4 RMS(Cart)=  0.00153067 RMS(Int)=  0.01714806
 Iteration  5 RMS(Cart)=  0.00082647 RMS(Int)=  0.01783325
 Iteration  6 RMS(Cart)=  0.00044608 RMS(Int)=  0.01821483
 Iteration  7 RMS(Cart)=  0.00024072 RMS(Int)=  0.01842393
 Iteration  8 RMS(Cart)=  0.00012988 RMS(Int)=  0.01853764
 Iteration  9 RMS(Cart)=  0.00007007 RMS(Int)=  0.01859924
 Iteration 10 RMS(Cart)=  0.00003781 RMS(Int)=  0.01863255
 Iteration 11 RMS(Cart)=  0.00002040 RMS(Int)=  0.01865054
 Iteration 12 RMS(Cart)=  0.00001100 RMS(Int)=  0.01866025
 Iteration 13 RMS(Cart)=  0.00000594 RMS(Int)=  0.01866550
 Iteration 14 RMS(Cart)=  0.00000320 RMS(Int)=  0.01866832
 Iteration 15 RMS(Cart)=  0.00000173 RMS(Int)=  0.01866985
 Iteration 16 RMS(Cart)=  0.00000093 RMS(Int)=  0.01867067
 GradGradGradGradGradGradGradGradGradGradGradGradGradGradGradGradGradGrad

 Leave Link  103 at Sat Feb 16 14:05:50 2019, MaxMem=   196608000 cpu:        61.2
 (Enter /cm/shared/c3ddb/gaussian/09.d01/g09/l202.exe)
[...]
           D4        -156.10126-145.78811-133.65215-120.17103-106.67479
           D5         -92.50569 -82.14344 -71.23077 -59.87840 -48.49751
           D6          84.00808  94.46168 106.62042 120.06902 133.58925
           D7         177.51289 177.57240 178.50096 179.95639-178.52958
           D8          -3.15536  -3.07036  -1.92446  -0.04370   1.88089
           D9           1.07957   1.03713   0.68896   0.00988  -0.65484
           D10       -179.58868-179.60562-179.73645 180.00979 179.75564
                          21        22        23        24        25
     Eigenvalues --  -117.94186-117.94269-117.94342-117.94390-117.94405
           R1           1.50694   1.50417   1.50201   1.50072   1.50027
           R2           1.09248   1.09335   1.09428   1.09507   1.09576
           R3           1.09645   1.09694   1.09694   1.09645   1.09577
           R4           1.09256   1.09228   1.09218   1.09240   1.09256
           R5           1.32952   1.32951   1.32946   1.32940   1.32941
           R6           1.08808   1.08840   1.08866   1.08879   1.08887
           R7           1.08410   1.08412   1.08414   1.08417   1.08417
           R8           1.08649   1.08637   1.08629   1.08621   1.08621
           A1         111.58800 111.57663 111.44583 111.26487 110.99577
           A2         110.46992 110.30916 110.44803 110.68464 111.14011
           A3         112.01448 112.00585 111.85981 111.73945 111.52474
           A4         106.16592 105.96924 106.02813 106.30377 106.61750
           A5         108.89539 109.08316 108.96874 108.61145 108.16897
           A6         107.45370 107.64379 107.85833 108.02736 108.20180
           A7         125.13583 125.22825 125.24502 125.30896 125.27860
           A8         116.25163 116.05547 115.99078 115.90087 115.94141
           A9         118.53027 118.62753 118.70919 118.77504 118.77995
           A10        121.57004 121.61011 121.64095 121.66352 121.66799
           A11        121.76835 121.69373 121.63598 121.59505 121.58665
           A12        116.65866 116.69312 116.72118 116.74102 116.74536
           D1        -159.99982-149.99973-139.99978-129.99973-119.99973
           D2          23.36051  33.48774  42.74445  51.43921  59.92629
           D3          82.14045  92.49569 102.41548 112.03507 121.52251
           D4         -94.49922 -84.01684 -74.84030 -66.52598 -58.55148
           D5         -37.61216 -27.38247 -17.73179  -8.40748   0.69081
           D6         145.74816 156.10500 165.01243 173.03147-179.38317
           D7        -177.61626-177.48067-178.01987-178.90331 179.93453
           D8           3.02950   3.17434   2.49513   1.33991  -0.05911
           D9          -1.04664  -1.05016  -0.83234  -0.38007   0.01044
           D10        179.59912 179.60485 179.68266 179.86314-179.98320
                          26        27        28        29        30
     Eigenvalues --  -117.94385-117.94333-117.94259-117.94180-117.94116
           R1           1.50100   1.50253   1.50480   1.50728   1.50962
           R2           1.09622   1.09636   1.09619   1.09569   1.09505
           R3           1.09470   1.09366   1.09269   1.09192   1.09151
           R4           1.09289   1.09312   1.09340   1.09371   1.09392
           R5           1.32941   1.32944   1.32948   1.32952   1.32951
           R6           1.08883   1.08870   1.08846   1.08816   1.08782
           R7           1.08417   1.08414   1.08411   1.08408   1.08407
           R8           1.08623   1.08631   1.08641   1.08652   1.08660
           A1         110.85154 110.72390 110.79372 110.88019 111.19084
           A2         111.45410 111.75293 111.89512 111.88576 111.74418
           A3         111.38490 111.28794 111.22879 111.31470 111.31439
           A4         107.01825 107.39258 107.67949 107.83769 107.75427
           A5         107.64593 107.16556 106.81041 106.65108 106.81289
           A6         108.29665 108.31929 108.22117 108.04930 107.79924
           A7         125.27413 125.19771 125.13025 125.08173 125.02245
           A8         115.95878 116.06843 116.20478 116.35070 116.50546
           A9         118.74755 118.67314 118.57825 118.49035 118.44390
           A10        121.65924 121.63337 121.60025 121.55865 121.53520
           A11        121.60097 121.64208 121.70515 121.78111 121.83204
           A12        116.73906 116.72268 116.69157 116.65785 116.63170
           D1        -109.99978 -99.99977 -89.99981 -79.99977 -69.99974
           D2          68.36505  77.11654  86.55198  96.74384 108.03167
           D3         130.90975 140.32611 149.81996 159.56561 169.55398
           D4         -50.72543 -42.55758 -33.62825 -23.69078 -12.41461
           D5           9.83614  19.08332  28.64555  38.55781  48.96477
           D6        -171.79903-163.80037-154.80266-144.69857-133.00383
           D7         178.84444 177.88571 177.53492 177.62515 178.62332
           D8          -1.47664  -2.62793  -3.11896  -2.95607  -1.76287
           D9           0.52133   0.83815   1.05806   0.94532   0.62687
           D10       -179.79975-179.67549-179.59582-179.63590-179.75932
                          31        32        33        34        35
     Eigenvalues --  -117.94092-117.94115-117.94178-117.94259-117.94334
           R1           1.51066   1.50984   1.50760   1.50486   1.50258
           R2           1.09427   1.09368   1.09317   1.09287   1.09262
           R3           1.09157   1.09212   1.09295   1.09385   1.09467
           R4           1.09426   1.09464   1.09516   1.09557   1.09592
           R5           1.32949   1.32950   1.32952   1.32950   1.32945
           R6           1.08767   1.08775   1.08807   1.08839   1.08866
           R7           1.08408   1.08410   1.08413   1.08414   1.08416
           R8           1.08662   1.08658   1.08650   1.08639   1.08630
           A1         111.37369 111.57858 111.62706 111.64428 111.54143
           A2         111.50238 111.31863 111.18306 111.14576 111.09558
           A3         111.42456 111.34813 111.28340 111.11728 111.13061
           A4         107.54345 107.30425 107.24606 107.34916 107.61741
           A5         107.24277 107.79405 108.23554 108.51230 108.54404
           A6         107.53209 107.27816 107.05199 106.86662 106.71391
           A7         124.99341 125.01878 125.06039 125.16563 125.19507
           A8         116.57577 116.49979 116.36366 116.14916 116.06192
           A9         118.43079 118.45335 118.50232 118.59750 118.68815
           A10        121.52652 121.53990 121.56900 121.60717 121.64089
           A11        121.85011 121.82585 121.77048 121.69761 121.63608
           A12        116.62337 116.63317 116.65742 116.69179 116.72058
           D1         -59.99979 -49.99972 -39.99974 -29.99976 -19.99974
           D2         119.92885 131.96504 143.17964 153.46806 162.74118
           D3         179.86206-169.84795-159.71476-149.83189-140.06893
           D4          -0.20930  12.11682  23.46462  33.63593  42.67200
           D5          59.70361  70.49231  81.04501  91.29513 101.27382
           D6        -120.36775-107.54292 -95.77561 -85.23704 -75.98525
           D7         179.89302-178.66528-177.88646-177.63312-178.17449
           D8          -0.08887   1.72522   2.77629   3.06335   2.41376
           D9          -0.03441  -0.66521  -1.12812  -1.17864  -0.98131
           D10       -180.01629 179.72529 179.53464 179.51783 179.60694
                          36        37
     Eigenvalues --  -117.94386-117.94405
           R1           1.50096   1.50040
           R2           1.09256   1.09253
           R3           1.09530   1.09573
           R4           1.09594   1.09575
           R5           1.32941   1.32938
           R6           1.08880   1.08886
           R7           1.08417   1.08417
           R8           1.08623   1.08620
           A1         111.55876 111.53517
           A2         111.07624 111.05584
           A3         111.05597 111.06286
           A4         107.90715 108.20437
           A5         108.42539 108.20183
           A6         106.62283 106.58847
           A7         125.27398 125.29013
           A8         115.95076 115.92282
           A9         118.75738 118.78705
           A10        121.66054 121.66978
           A11        121.59926 121.58280
           A12        116.73950 116.74741
           D1          -9.99976   0.00033
           D2         171.56437 179.99061
           D3        -130.43557-120.78368
           D4          51.12856  59.20660
           D5         111.08231 120.78594
           D6         -67.35356 -59.22378
           D7        -178.93518 179.99470
           D8           1.37988  -0.00405
           D9          -0.53947   0.00469
           D10        179.77559 180.00593
 Largest change from initial coordinates is atom    8       0.199 Angstoms.
 Leave Link  103 at Sat Feb 16 14:23:44 2019, MaxMem=   196608000 cpu:         1.3
 (Enter /cm/shared/c3ddb/gaussian/09.d01/g09/l202.exe)
                          Input orientation:                          
 ---------------------------------------------------------------------
 Center     Atomic      Atomic             Coordinates (Angstroms)
 Number     Number       Type             X           Y           Z
 ---------------------------------------------------------------------
      1          6           0       -1.055693    0.148979   -0.401492
      2          6           0        0.410509   -0.159808   -0.323295
      3          6           0        1.152330   -0.090406    0.777681
      4          1           0       -1.455716    0.444552    0.571256
      5          1           0       -1.622577   -0.719443   -0.755205
      6          1           0       -1.249972    0.960009   -1.112242
      7          1           0        0.883462   -0.463215   -1.255966
      8          1           0        2.210204   -0.327519    0.767153
      9          1           0        0.727452    0.206852    1.732113
 ---------------------------------------------------------------------
                    Distance matrix (angstroms):
                    1          2          3          4          5
     1  C    0.000000
     2  C    1.500404   0.000000
     3  C    2.514582   1.329385   0.000000
     4  H    1.092530   2.155985   2.670337   0.000000
     5  H    1.095732   2.152481   3.231956   1.772633   0.000000
     6  H    1.095755   2.152586   3.232064   1.772623   1.756949
     7  H    2.205726   1.088860   2.084945   3.103956   2.568393
     8  H    3.501266   2.110949   1.084173   3.751459   4.142631
     9  H    2.781227   2.111775   1.086198   2.484011   3.545054
                    6          7          8          9
     6  H    0.000000
     7  H    2.568612   0.000000
     8  H    4.142786   2.423152   0.000000
     9  H    3.545110   3.066259   1.848041   0.000000
 Stoichiometry    C3H6
 Framework group  C1[X(C3H6)]
 Deg. of freedom    21
 Full point group                 C1      NOp   1
 RotChk:  IX=1 Diff= 1.44D-15
 Largest Abelian subgroup         C1      NOp   1
 Largest concise Abelian subgroup C1      NOp   1
                         Standard orientation:                         
 ---------------------------------------------------------------------
 Center     Atomic      Atomic             Coordinates (Angstroms)
 Number     Number       Type             X           Y           Z
 ---------------------------------------------------------------------
      1          6           0       -1.233475   -0.162356   -0.000009
      2          6           0        0.134634    0.453672    0.000042
      3          6           0        1.280436   -0.220421    0.000001
      4          1           0       -1.181900   -1.253668   -0.000078
      5          1           0       -1.807305    0.153278   -0.878486
      6          1           0       -1.807445    0.153120    0.878463
      7          1           0        0.166592    1.542062   -0.000049
      8          1           0        2.238934    0.286249   -0.000044
      9          1           0        1.301551   -1.306413   -0.000009
 ---------------------------------------------------------------------
 Rotational constants (GHZ):     47.0097482      9.2803582      8.1386288
 Leave Link  202 at Sat Feb 16 14:23:44 2019, MaxMem=   196608000 cpu:         0.1
 (Enter /cm/shared/c3ddb/gaussian/09.d01/g09/l601.exe)
 Copying SCF densities to generalized density rwf, IOpCl= 0 IROHF=0.

 **********************************************************************

            Population analysis using the SCF density.

 **********************************************************************

 Orbital symmetries:
       Occupied  (A) (A) (A) (A) (A) (A) (A) (A) (A) (A) (A) (A)
       Virtual   (A) (A) (A) (A) (A) (A) (A) (A) (A) (A) (A) (A)
                 (A) (A) (A) (A) (A) (A) (A) (A) (A) (A) (A) (A)
                 (A) (A) (A) (A) (A) (A) (A) (A) (A) (A) (A) (A)
                 (A) (A) (A) (A) (A) (A) (A) (A) (A) (A) (A) (A)
                 (A) (A) (A) (A) (A) (A) (A) (A) (A) (A) (A) (A)
                 (A) (A) (A) (A) (A) (A) (A) (A) (A) (A) (A) (A)
                 (A) (A) (A) (A) (A) (A)
 The electronic state is 1-A.
 Alpha  occ. eigenvalues --  -10.17342 -10.16663 -10.15773  -0.78780  -0.68724
 Alpha  occ. eigenvalues --   -0.55532  -0.46893  -0.42401  -0.41484  -0.37487
 Alpha  occ. eigenvalues --   -0.34771  -0.25987
 Alpha virt. eigenvalues --    0.01451   0.05327   0.07748   0.08679   0.11742
 Alpha virt. eigenvalues --    0.12701   0.14002   0.23339   0.29518   0.30985
 Alpha virt. eigenvalues --    0.32303   0.33614   0.38067   0.42399   0.43781
 Alpha virt. eigenvalues --    0.47029   0.51816   0.55205   0.57631   0.58555
 Alpha virt. eigenvalues --    0.59929   0.62193   0.66569   0.69418   0.79161
 Alpha virt. eigenvalues --    0.84468   0.87285   0.96465   1.05909   1.11414
 Alpha virt. eigenvalues --    1.19541   1.37055   1.38139   1.40800   1.45569
 Alpha virt. eigenvalues --    1.47999   1.50774   1.52211   1.57171   1.58928
 Alpha virt. eigenvalues --    1.61421   1.72206   1.73761   1.75055   1.83319
 Alpha virt. eigenvalues --    1.87102   2.00716   2.01077   2.05114   2.11347
 Alpha virt. eigenvalues --    2.11892   2.17778   2.26063   2.33115   2.33539
 Alpha virt. eigenvalues --    2.37425   2.43785   2.45746   2.48288   2.53693
 Alpha virt. eigenvalues --    2.55717   2.61092   2.67010   2.68673   2.79410
 Alpha virt. eigenvalues --    2.84595   2.88947   3.06119   3.14904   3.46304
 Alpha virt. eigenvalues --    3.71594   3.77772   3.83239   3.96458   4.29826
 Alpha virt. eigenvalues --   23.70771  23.91980  24.28088
          Condensed to atoms (all electrons):
               1          2          3          4          5          6
     1  C    4.820384   0.370086  -0.065129   0.407525   0.398418   0.398414
     2  C    0.370086   4.899747   0.658160  -0.038938  -0.035240  -0.035234
     3  C   -0.065129   0.658160   4.836611  -0.005144   0.000713   0.000714
     4  H    0.407525  -0.038938  -0.005144   0.572930  -0.027873  -0.027879
     5  H    0.398418  -0.035240   0.000713  -0.027873   0.584367  -0.033146
     6  H    0.398414  -0.035234   0.000714  -0.027879  -0.033146   0.584369
     7  H   -0.047670   0.409258  -0.038792   0.007104  -0.002736  -0.002733
     8  H    0.007627  -0.033433   0.408597   0.000002  -0.000413  -0.000413
     9  H   -0.012343  -0.040330   0.409744   0.005527   0.000212   0.000212
               7          8          9
     1  C   -0.047670   0.007627  -0.012343
     2  C    0.409258  -0.033433  -0.040330
     3  C   -0.038792   0.408597   0.409744
     4  H    0.007104   0.000002   0.005527
     5  H   -0.002736  -0.000413   0.000212
     6  H   -0.002733  -0.000413   0.000212
     7  H    0.581349  -0.012390   0.008635
     8  H   -0.012390   0.569149  -0.042897
     9  H    0.008635  -0.042897   0.574665
 Mulliken charges:
               1
     1  C   -0.277312
     2  C   -0.154076
     3  C   -0.205475
     4  H    0.106747
     5  H    0.115697
     6  H    0.115695
     7  H    0.097976
     8  H    0.104173
     9  H    0.096575
 Sum of Mulliken charges =   0.00000
 Mulliken charges with hydrogens summed into heavy atoms:
               1
     1  C    0.060828
     2  C   -0.056100
     3  C   -0.004728
 Electronic spatial extent (au):  <R**2>=            197.4189
 Charge=              0.0000 electrons
 Dipole moment (field-independent basis, Debye):
    X=             -0.3720    Y=              0.0809    Z=             -0.0001  Tot=              0.3807
 Quadrupole moment (field-independent basis, Debye-Ang):
   XX=            -19.3130   YY=            -19.0538   ZZ=            -21.8189
   XY=             -0.1328   XZ=             -0.0002   YZ=             -0.0002
 Traceless Quadrupole moment (field-independent basis, Debye-Ang):
   XX=              0.7489   YY=              1.0081   ZZ=             -1.7570
   XY=             -0.1328   XZ=             -0.0002   YZ=             -0.0002
 Octapole moment (field-independent basis, Debye-Ang**2):
  XXX=              1.8371  YYY=             -0.1849  ZZZ=             -0.0003  XYY=              0.5688
  XXY=              0.7873  XXZ=              0.0000  XZZ=             -2.4661  YZZ=              0.2753
  YYZ=             -0.0004  XYZ=              0.0001
 Hexadecapole moment (field-independent basis, Debye-Ang**3):
 XXXX=           -184.7533 YYYY=            -51.9353 ZZZZ=            -31.3408 XXXY=              1.0445
 XXXZ=             -0.0014 YYYX=             -0.1581 YYYZ=             -0.0003 ZZZX=             -0.0002
 ZZZY=             -0.0003 XXYY=            -40.8981 XXZZ=            -37.2238 YYZZ=            -15.5305
 XXYZ=             -0.0003 YYXZ=              0.0000 ZZXY=             -0.6387
 N-N= 7.073312168419D+01 E-N=-4.142896303407D+02  KE= 1.173504706082D+02
 No NMR shielding tensors so no spin-rotation constants.
 Leave Link  601 at Sat Feb 16 14:23:44 2019, MaxMem=   196608000 cpu:         1.3
 (Enter /cm/shared/c3ddb/gaussian/09.d01/g09/l9999.exe)
 1\1\GINC-NODE024\Scan\RB3LYP\6-311G(2d,d,p)\C3H6\DUMINDA\16-Feb-2019\0
 \\#P opt=(modredundant, calcfc, noeigentest) b3lyp/cbsb7 scf=xqc\\name
 \\0,1\C,-1.0556928336,0.1489794593,-0.4014924696\C,0.4105089024,-0.159
 8082991,-0.3232953148\C,1.1523304048,-0.0904060538,0.7776806317\H,-1.4
 557164895,0.4445522374,0.5712563934\H,-1.6225765915,-0.7194434677,-0.7
 552054699\H,-1.2499722196,0.9600087384,-1.1122422186\H,0.8834621866,-0
 .4632151917,-1.2559659374\H,2.2102042513,-0.327519189,0.7671527409\H,0
 .7274516284,0.2068516884,1.732112885\\Version=AS64L-G09RevD.01\State=1
 -A\HF=-117.9440566,-117.9438645,-117.9433432,-117.9425898,-117.9417816
 ,-117.9411515,-117.9409188,-117.9411642,-117.9417967,-117.9425938,-117
 .9433323,-117.9438481,-117.9440468,-117.9439002,-117.9434204,-117.9426
 876,-117.9418604,-117.9411827,-117.9409188,-117.9411827,-117.9418604,-
 117.9426876,-117.9434205,-117.9439001,-117.9440467,-117.9438481,-117.9
 433322,-117.9425939,-117.9417967,-117.9411642,-117.9409187,-117.941151
 5,-117.9417816,-117.9425897,-117.9433431,-117.9438645,-117.944048\RMSD
 =7.727e-09,3.065e-09,3.130e-09,3.706e-09,3.755e-09,3.513e-09,3.174e-09
 ,2.412e-09,2.860e-09,9.972e-09,5.584e-09,4.634e-09,7.436e-09,8.615e-09
 ,3.048e-09,3.186e-09,3.367e-09,3.638e-09,3.934e-09,3.775e-09,2.735e-09
 ,9.448e-09,4.035e-09,9.711e-09,2.661e-09,6.080e-09,2.121e-09,2.502e-09
 ,3.021e-09,8.363e-09,3.329e-09,9.850e-09,2.520e-09,5.242e-09,7.692e-09
 ,7.860e-09,6.769e-09\PG=C01 [X(C3H6)]\\@


 MAN IS A SINGULAR CREATURE.  HE HAS A SET OF GIFTS
 WHICH MAKE HIM UNIQUE AMONG THE ANIMALS: SO THAT, 
 UNLIKE THEM, HE IS NOT A FIGURE IN THE LANDSCAPE --
 HE IS A SHAPER OF THE LANDSCAPE.

                       -- JACOB BRONOWSKI
 Job cpu time:       0 days  2 hours  8 minutes 12.8 seconds.
 File lengths (MBytes):  RWF=     12 Int=      0 D2E=      0 Chk=      4 Scr=      1
 Normal termination of Gaussian 09 at Sat Feb 16 14:23:45 2019.
