 Entering Gaussian System, Link 0=g09
 Initial command:
 /cm/shared/c3ddb/gaussian/09.d01/g09/l1.exe "/scratch/users/duminda/g09/a1689-7322579/Gau-11446.inp" -scrdir="/scratch/users/duminda/g09/a1689-7322579/"
 Entering Link 1 = /cm/shared/c3ddb/gaussian/09.d01/g09/l1.exe PID=     11447.
  
 Copyright (c) 1988,1990,1992,1993,1995,1998,2003,2009,2013,
            Gaussian, Inc.  All Rights Reserved.
  
 This is part of the Gaussian(R) 09 program.  It is based on
 the Gaussian(R) 03 system (copyright 2003, Gaussian, Inc.),
 the Gaussian(R) 98 system (copyright 1998, Gaussian, Inc.),
 the Gaussian(R) 94 system (copyright 1995, Gaussian, Inc.),
 the Gaussian 92(TM) system (copyright 1992, Gaussian, Inc.),
 the Gaussian 90(TM) system (copyright 1990, Gaussian, Inc.),
 the Gaussian 88(TM) system (copyright 1988, Gaussian, Inc.),
 the Gaussian 86(TM) system (copyright 1986, Carnegie Mellon
 University), and the Gaussian 82(TM) system (copyright 1983,
 Carnegie Mellon University). Gaussian is a federally registered
 trademark of Gaussian, Inc.
  
 This software contains proprietary and confidential information,
 including trade secrets, belonging to Gaussian, Inc.
  
 This software is provided under written license and may be
 used, copied, transmitted, or stored only in accord with that
 written license.
  
 The following legend is applicable only to US Government
 contracts under FAR:
  
                    RESTRICTED RIGHTS LEGEND
  
 Use, reproduction and disclosure by the US Government is
 subject to restrictions as set forth in subparagraphs (a)
 and (c) of the Commercial Computer Software - Restricted
 Rights clause in FAR 52.227-19.
  
 Gaussian, Inc.
 340 Quinnipiac St., Bldg. 40, Wallingford CT 06492
  
  
 ---------------------------------------------------------------
 Warning -- This program may not be used in any manner that
 competes with the business of Gaussian, Inc. or will provide
 assistance to any competitor of Gaussian, Inc.  The licensee
 of this program is prohibited from giving any competitor of
 Gaussian, Inc. access to this program.  By using this program,
 the user acknowledges that Gaussian, Inc. is engaged in the
 business of creating and licensing software in the field of
 computational chemistry and represents and warrants to the
 licensee that it is not a competitor of Gaussian, Inc. and that
 it will not use this program in any manner prohibited above.
 ---------------------------------------------------------------
  

 Cite this work as:
 Gaussian 09, Revision D.01,
 M. J. Frisch, G. W. Trucks, H. B. Schlegel, G. E. Scuseria, 
 M. A. Robb, J. R. Cheeseman, G. Scalmani, V. Barone, B. Mennucci, 
 G. A. Petersson, H. Nakatsuji, M. Caricato, X. Li, H. P. Hratchian, 
 A. F. Izmaylov, J. Bloino, G. Zheng, J. L. Sonnenberg, M. Hada, 
 M. Ehara, K. Toyota, R. Fukuda, J. Hasegawa, M. Ishida, T. Nakajima, 
 Y. Honda, O. Kitao, H. Nakai, T. Vreven, J. A. Montgomery, Jr., 
 J. E. Peralta, F. Ogliaro, M. Bearpark, J. J. Heyd, E. Brothers, 
 K. N. Kudin, V. N. Staroverov, T. Keith, R. Kobayashi, J. Normand, 
 K. Raghavachari, A. Rendell, J. C. Burant, S. S. Iyengar, J. Tomasi, 
 M. Cossi, N. Rega, J. M. Millam, M. Klene, J. E. Knox, J. B. Cross, 
 V. Bakken, C. Adamo, J. Jaramillo, R. Gomperts, R. E. Stratmann, 
 O. Yazyev, A. J. Austin, R. Cammi, C. Pomelli, J. W. Ochterski, 
 R. L. Martin, K. Morokuma, V. G. Zakrzewski, G. A. Voth, 
 P. Salvador, J. J. Dannenberg, S. Dapprich, A. D. Daniels, 
 O. Farkas, J. B. Foresman, J. V. Ortiz, J. Cioslowski, 
 and D. J. Fox, Gaussian, Inc., Wallingford CT, 2013.
 
 ******************************************
 Gaussian 09:  AS64L-G09RevD.01 24-Apr-2013
                16-Feb-2019 
 ******************************************
 %chk=check.chk
 %mem=1500mb
 %nproc=8
 Will use up to    8 processors via shared memory.
 ---------------------------------------
 #P b3lyp/cbsb7 freq iop(7/33=1) scf=xqc
 ---------------------------------------
 1/10=4,30=1,38=1/1,3;
 2/12=2,17=6,18=5,40=1/2;
 3/5=4,6=6,7=700,11=2,16=1,25=1,30=1,71=2,74=-5,140=1/1,2,3;
 4//1;
 5/5=2,8=3,13=1,38=5,98=1/2,8;
 8/6=4,10=90,11=11/1;
 11/6=1,8=1,9=11,15=111,16=1/1,2,10;
 10/6=1/2;
 6/7=2,8=2,9=2,10=2,18=1,28=1/1;
 7/8=1,10=1,25=1,33=1/1,2,3,16;
 1/10=4,30=1/3;
 99//99;
 Leave Link    1 at Sat Feb 16 13:50:01 2019, MaxMem=   196608000 cpu:         0.8
 (Enter /cm/shared/c3ddb/gaussian/09.d01/g09/l101.exe)
 ----
 name
 ----
 Symbolic Z-matrix:
 Charge =  0 Multiplicity = 1
 N                     0.82427   0.20619  -0.34885 
 C                    -0.56981  -0.02279   0.04344 
 H                    -1.0848   -0.56296  -0.75539 
 H                    -0.71377  -0.58799   0.97813 
 H                    -1.07553   0.93999   0.15485 
 H                     1.30553  -0.68101  -0.45688 
 H                     1.31411   0.70857   0.3847 
 
 NAtoms=      7 NQM=        7 NQMF=       0 NMMI=      0 NMMIF=      0
                NMic=       0 NMicF=      0.
                    Isotopes and Nuclear Properties:
 (Nuclear quadrupole moments (NQMom) in fm**2, nuclear magnetic moments (NMagM)
  in nuclear magnetons)

  Atom         1           2           3           4           5           6           7
 IAtWgt=          14          12           1           1           1           1           1
 AtmWgt=  14.0030740  12.0000000   1.0078250   1.0078250   1.0078250   1.0078250   1.0078250
 NucSpn=           2           0           1           1           1           1           1
 AtZEff=   0.0000000   0.0000000   0.0000000   0.0000000   0.0000000   0.0000000   0.0000000
 NQMom=    2.0440000   0.0000000   0.0000000   0.0000000   0.0000000   0.0000000   0.0000000
 NMagM=    0.4037610   0.0000000   2.7928460   2.7928460   2.7928460   2.7928460   2.7928460
 AtZNuc=   7.0000000   6.0000000   1.0000000   1.0000000   1.0000000   1.0000000   1.0000000
 Leave Link  101 at Sat Feb 16 13:50:01 2019, MaxMem=   196608000 cpu:         0.6
 (Enter /cm/shared/c3ddb/gaussian/09.d01/g09/l103.exe)

 GradGradGradGradGradGradGradGradGradGradGradGradGradGradGradGradGradGrad
 Berny optimization.
 Initialization pass.
 Trust Radius=3.00D-01 FncErr=1.00D-07 GrdErr=1.00D-07
 Number of steps in this run=      2 maximum allowed number of steps=      2.
 GradGradGradGradGradGradGradGradGradGradGradGradGradGradGradGradGradGrad

 Leave Link  103 at Sat Feb 16 13:50:01 2019, MaxMem=   196608000 cpu:         0.2
 (Enter /cm/shared/c3ddb/gaussian/09.d01/g09/l202.exe)
                          Input orientation:                          
 ---------------------------------------------------------------------
 Center     Atomic      Atomic             Coordinates (Angstroms)
 Number     Number       Type             X           Y           Z
 ---------------------------------------------------------------------
      1          7           0        0.824267    0.206191   -0.348852
      2          6           0       -0.569810   -0.022794    0.043441
      3          1           0       -1.084799   -0.562956   -0.755389
      4          1           0       -0.713770   -0.587986    0.978134
      5          1           0       -1.075527    0.939992    0.154845
      6          1           0        1.305533   -0.681013   -0.456877
      7          1           0        1.314106    0.708567    0.384697
 ---------------------------------------------------------------------
                    Distance matrix (angstroms):
                    1          2          3          4          5
     1  N    0.000000
     2  C    1.466212   0.000000
     3  H    2.097950   1.093215   0.000000
     4  H    2.181093   1.101734   1.772961   0.000000
     5  H    2.097949   1.093214   1.757118   1.772961   0.000000
     6  H    1.015095   2.049508   2.411791   2.479011   2.944708
     7  H    1.015095   2.049508   2.944709   2.479012   2.411791
                    6          7
     6  H    0.000000
     7  H    1.624578   0.000000
 Stoichiometry    CH5N
 Framework group  CS[SG(CHN),X(H4)]
 Deg. of freedom     9
 Full point group                 CS      NOp   2
 Largest Abelian subgroup         CS      NOp   2
 Largest concise Abelian subgroup CS      NOp   2
                         Standard orientation:                         
 ---------------------------------------------------------------------
 Center     Atomic      Atomic             Coordinates (Angstroms)
 Number     Number       Type             X           Y           Z
 ---------------------------------------------------------------------
      1          7           0       -0.050536   -0.760880    0.000000
      2          6           0       -0.050536    0.705333    0.000000
      3          1           0       -0.592245    1.065613    0.878559
      4          1           0        0.943434    1.180561    0.000000
      5          1           0       -0.592245    1.065613   -0.878559
      6          1           0        0.449012   -1.108812    0.812289
      7          1           0        0.449012   -1.108812   -0.812289
 ---------------------------------------------------------------------
 Rotational constants (GHZ):    103.4220288     22.6897304     21.8226817
 Leave Link  202 at Sat Feb 16 13:50:01 2019, MaxMem=   196608000 cpu:         0.4
 (Enter /cm/shared/c3ddb/gaussian/09.d01/g09/l301.exe)
 Standard basis: 6-311G(2d,d,p) (5D, 7F)
 Ernie: Thresh=  0.10000D-02 Tol=  0.10000D-05 Strict=F.
 There are    45 symmetry adapted cartesian basis functions of A'  symmetry.
 There are    23 symmetry adapted cartesian basis functions of A"  symmetry.
 There are    43 symmetry adapted basis functions of A'  symmetry.
 There are    23 symmetry adapted basis functions of A"  symmetry.
    66 basis functions,   104 primitive gaussians,    68 cartesian basis functions
     9 alpha electrons        9 beta electrons
       nuclear repulsion energy        41.9242734889 Hartrees.
 IExCor=  402 DFT=T Ex+Corr=B3LYP ExCW=0 ScaHFX=  0.200000
 ScaDFX=  0.800000  0.720000  1.000000  0.810000 ScalE2=  1.000000  1.000000
 IRadAn=      0 IRanWt=     -1 IRanGd=            0 ICorTp=0 IEmpDi=  4
 NAtoms=    7 NActive=    7 NUniq=    5 SFac= 1.96D+00 NAtFMM=   60 NAOKFM=F Big=F
 Integral buffers will be    131072 words long.
 Raffenetti 2 integral format.
 Two-electron integral symmetry is turned on.
 Leave Link  301 at Sat Feb 16 13:50:01 2019, MaxMem=   196608000 cpu:         0.5
 (Enter /cm/shared/c3ddb/gaussian/09.d01/g09/l302.exe)
 NPDir=0 NMtPBC=     1 NCelOv=     1 NCel=       1 NClECP=     1 NCelD=      1
         NCelK=      1 NCelE2=     1 NClLst=     1 CellRange=     0.0.
 One-electron integrals computed using PRISM.
 One-electron integral symmetry used in STVInt
 NBasis=    66 RedAO= T EigKep=  7.18D-03  NBF=    43    23
 NBsUse=    66 1.00D-06 EigRej= -1.00D+00 NBFU=    43    23
 Precomputing XC quadrature grid using
 IXCGrd= 4 IRadAn=           0 IRanWt=          -1 IRanGd=           0 AccXCQ= 0.00D+00.
 Generated NRdTot=       0 NPtTot=           0 NUsed=           0 NTot=          32
 NSgBfM=    68    68    68    68    68 MxSgAt=     7 MxSgA2=     7.
 Leave Link  302 at Sat Feb 16 13:50:01 2019, MaxMem=   196608000 cpu:         1.7
 (Enter /cm/shared/c3ddb/gaussian/09.d01/g09/l303.exe)
 DipDrv:  MaxL=1.
 Leave Link  303 at Sat Feb 16 13:50:01 2019, MaxMem=   196608000 cpu:         1.0
 (Enter /cm/shared/c3ddb/gaussian/09.d01/g09/l401.exe)
 ExpMin= 1.03D-01 ExpMax= 6.29D+03 ExpMxC= 9.49D+02 IAcc=1 IRadAn=         1 AccDes= 0.00D+00
 Harris functional with IExCor=  402 and IRadAn=       1 diagonalized for initial guess.
 HarFok:  IExCor=  402 AccDes= 0.00D+00 IRadAn=         1 IDoV= 1 UseB2=F ITyADJ=14
 ICtDFT=  3500011 ScaDFX=  1.000000  1.000000  1.000000  1.000000
 FoFCou: FMM=F IPFlag=           0 FMFlag=      100000 FMFlg1=           0
         NFxFlg=           0 DoJE=T BraDBF=F KetDBF=T FulRan=T
         wScrn=  0.000000 ICntrl=     500 IOpCl=  0 I1Cent=   200000004 NGrid=           0
         NMat0=    1 NMatS0=      1 NMatT0=    0 NMatD0=    1 NMtDS0=    0 NMtDT0=    0
 Petite list used in FoFCou.
 Harris En= -95.9225537322550    
 JPrj=0 DoOrth=F DoCkMO=F.
 Initial guess orbital symmetries:
       Occupied  (A') (A') (A') (A') (A") (A') (A') (A") (A')
       Virtual   (A') (A') (A") (A') (A") (A') (A") (A') (A') (A")
                 (A') (A') (A") (A') (A') (A") (A') (A') (A') (A")
                 (A') (A") (A') (A") (A") (A') (A') (A') (A") (A")
                 (A') (A") (A') (A') (A") (A') (A') (A") (A') (A")
                 (A') (A') (A") (A') (A") (A') (A') (A') (A") (A')
                 (A') (A") (A') (A") (A') (A') (A')
 The electronic state of the initial guess is 1-A'.
 Leave Link  401 at Sat Feb 16 13:50:02 2019, MaxMem=   196608000 cpu:         1.7
 (Enter /cm/shared/c3ddb/gaussian/09.d01/g09/l502.exe)
 Closed shell SCF:
 Using DIIS extrapolation, IDIIS=  1040.
 Integral symmetry usage will be decided dynamically.
 Keep R1 ints in memory in symmetry-blocked form, NReq=3708352.
 IVT=       20976 IEndB=       20976 NGot=   196608000 MDV=   195345081
 LenX=   195345081 LenY=   195340016
 Requested convergence on RMS density matrix=1.00D-08 within  64 cycles.
 Requested convergence on MAX density matrix=1.00D-06.
 Requested convergence on             energy=1.00D-06.
 No special actions if energy rises.
 FoFCou: FMM=F IPFlag=           0 FMFlag=           0 FMFlg1=           0
         NFxFlg=           0 DoJE=F BraDBF=F KetDBF=F FulRan=T
         wScrn=  0.000000 ICntrl=     600 IOpCl=  0 I1Cent=           0 NGrid=           0
         NMat0=    1 NMatS0=   2211 NMatT0=    0 NMatD0=    1 NMtDS0=    0 NMtDT0=    0
 Petite list used in FoFCou.
 Integral accuracy reduced to 1.0D-05 until final iterations.

 Cycle   1  Pass 0  IDiag  1:
 E= -95.7800128216983    
 DIIS: error= 5.74D-02 at cycle   1 NSaved=   1.
 NSaved= 1 IEnMin= 1 EnMin= -95.7800128216983     IErMin= 1 ErrMin= 5.74D-02
 ErrMax= 5.74D-02  0.00D+00 EMaxC= 1.00D-01 BMatC= 1.24D-01 BMatP= 1.24D-01
 IDIUse=3 WtCom= 4.26D-01 WtEn= 5.74D-01
 Coeff-Com:  0.100D+01
 Coeff-En:   0.100D+01
 Coeff:      0.100D+01
 Gap=     0.171 Goal=   None    Shift=    0.000
 GapD=    0.171 DampG=1.000 DampE=0.500 DampFc=0.5000 IDamp=-1.
 Damping current iteration by 5.00D-01
 RMSDP=7.89D-03 MaxDP=1.10D-01              OVMax= 1.74D-01

 Cycle   2  Pass 0  IDiag  1:
 E= -95.8225975397189     Delta-E=       -0.042584718021 Rises=F Damp=T
 DIIS: error= 8.34D-03 at cycle   2 NSaved=   2.
 NSaved= 2 IEnMin= 2 EnMin= -95.8225975397189     IErMin= 2 ErrMin= 8.34D-03
 ErrMax= 8.34D-03  0.00D+00 EMaxC= 1.00D-01 BMatC= 6.62D-03 BMatP= 1.24D-01
 IDIUse=3 WtCom= 9.17D-01 WtEn= 8.34D-02
 Coeff-Com:  0.118D+00 0.882D+00
 Coeff-En:   0.224D+00 0.776D+00
 Coeff:      0.126D+00 0.874D+00
 Gap=     0.278 Goal=   None    Shift=    0.000
 RMSDP=1.25D-03 MaxDP=1.31D-02 DE=-4.26D-02 OVMax= 1.11D-01

 Cycle   3  Pass 0  IDiag  1:
 E= -95.8874830457033     Delta-E=       -0.064885505984 Rises=F Damp=F
 DIIS: error= 4.18D-03 at cycle   3 NSaved=   3.
 NSaved= 3 IEnMin= 3 EnMin= -95.8874830457033     IErMin= 3 ErrMin= 4.18D-03
 ErrMax= 4.18D-03  0.00D+00 EMaxC= 1.00D-01 BMatC= 1.13D-03 BMatP= 6.62D-03
 IDIUse=3 WtCom= 9.58D-01 WtEn= 4.18D-02
 Coeff-Com:  0.204D-02 0.259D+00 0.739D+00
 Coeff-En:   0.000D+00 0.000D+00 0.100D+01
 Coeff:      0.196D-02 0.248D+00 0.750D+00
 Gap=     0.275 Goal=   None    Shift=    0.000
 RMSDP=4.03D-04 MaxDP=6.68D-03 DE=-6.49D-02 OVMax= 1.11D-02

 Cycle   4  Pass 0  IDiag  1:
 E= -95.8881381446852     Delta-E=       -0.000655098982 Rises=F Damp=F
 DIIS: error= 2.27D-03 at cycle   4 NSaved=   4.
 NSaved= 4 IEnMin= 4 EnMin= -95.8881381446852     IErMin= 4 ErrMin= 2.27D-03
 ErrMax= 2.27D-03  0.00D+00 EMaxC= 1.00D-01 BMatC= 3.46D-04 BMatP= 1.13D-03
 IDIUse=3 WtCom= 9.77D-01 WtEn= 2.27D-02
 Coeff-Com: -0.647D-02 0.667D-01 0.388D+00 0.552D+00
 Coeff-En:   0.000D+00 0.000D+00 0.209D+00 0.791D+00
 Coeff:     -0.633D-02 0.652D-01 0.384D+00 0.557D+00
 Gap=     0.277 Goal=   None    Shift=    0.000
 RMSDP=1.69D-04 MaxDP=3.94D-03 DE=-6.55D-04 OVMax= 5.26D-03

 Cycle   5  Pass 0  IDiag  1:
 E= -95.8884278879253     Delta-E=       -0.000289743240 Rises=F Damp=F
 DIIS: error= 6.35D-04 at cycle   5 NSaved=   5.
 NSaved= 5 IEnMin= 5 EnMin= -95.8884278879253     IErMin= 5 ErrMin= 6.35D-04
 ErrMax= 6.35D-04  0.00D+00 EMaxC= 1.00D-01 BMatC= 1.09D-05 BMatP= 3.46D-04
 IDIUse=3 WtCom= 9.94D-01 WtEn= 6.35D-03
 Coeff-Com: -0.224D-02 0.307D-02 0.876D-01 0.212D+00 0.699D+00
 Coeff-En:   0.000D+00 0.000D+00 0.000D+00 0.000D+00 0.100D+01
 Coeff:     -0.223D-02 0.305D-02 0.871D-01 0.211D+00 0.701D+00
 Gap=     0.276 Goal=   None    Shift=    0.000
 RMSDP=2.85D-05 MaxDP=5.31D-04 DE=-2.90D-04 OVMax= 8.02D-04

 Cycle   6  Pass 0  IDiag  1:
 E= -95.8884368647603     Delta-E=       -0.000008976835 Rises=F Damp=F
 DIIS: error= 1.99D-05 at cycle   6 NSaved=   6.
 NSaved= 6 IEnMin= 6 EnMin= -95.8884368647603     IErMin= 6 ErrMin= 1.99D-05
 ErrMax= 1.99D-05  0.00D+00 EMaxC= 1.00D-01 BMatC= 2.79D-08 BMatP= 1.09D-05
 IDIUse=1 WtCom= 1.00D+00 WtEn= 0.00D+00
 Coeff-Com:  0.230D-03-0.786D-03 0.167D-02 0.496D-02 0.396D-01 0.954D+00
 Coeff:      0.230D-03-0.786D-03 0.167D-02 0.496D-02 0.396D-01 0.954D+00
 Gap=     0.276 Goal=   None    Shift=    0.000
 RMSDP=2.65D-06 MaxDP=2.82D-05 DE=-8.98D-06 OVMax= 7.08D-05

 Initial convergence to 1.0D-05 achieved.  Increase integral accuracy.
 Cycle   7  Pass 1  IDiag  1:
 E= -95.8884439372346     Delta-E=       -0.000007072474 Rises=F Damp=F
 DIIS: error= 5.09D-06 at cycle   1 NSaved=   1.
 NSaved= 1 IEnMin= 1 EnMin= -95.8884439372346     IErMin= 1 ErrMin= 5.09D-06
 ErrMax= 5.09D-06  0.00D+00 EMaxC= 1.00D-01 BMatC= 1.89D-09 BMatP= 1.89D-09
 IDIUse=1 WtCom= 1.00D+00 WtEn= 0.00D+00
 Coeff-Com:  0.100D+01
 Coeff:      0.100D+01
 Gap=     0.276 Goal=   None    Shift=    0.000
 RMSDP=2.65D-06 MaxDP=2.82D-05 DE=-7.07D-06 OVMax= 2.35D-05

 Cycle   8  Pass 1  IDiag  1:
 E= -95.8884439390429     Delta-E=       -0.000000001808 Rises=F Damp=F
 DIIS: error= 3.46D-06 at cycle   2 NSaved=   2.
 NSaved= 2 IEnMin= 2 EnMin= -95.8884439390429     IErMin= 2 ErrMin= 3.46D-06
 ErrMax= 3.46D-06  0.00D+00 EMaxC= 1.00D-01 BMatC= 4.98D-10 BMatP= 1.89D-09
 IDIUse=1 WtCom= 1.00D+00 WtEn= 0.00D+00
 Coeff-Com:  0.278D+00 0.722D+00
 Coeff:      0.278D+00 0.722D+00
 Gap=     0.276 Goal=   None    Shift=    0.000
 RMSDP=3.61D-07 MaxDP=4.64D-06 DE=-1.81D-09 OVMax= 9.60D-06

 Cycle   9  Pass 1  IDiag  1:
 E= -95.8884439393293     Delta-E=       -0.000000000286 Rises=F Damp=F
 DIIS: error= 2.20D-06 at cycle   3 NSaved=   3.
 NSaved= 3 IEnMin= 3 EnMin= -95.8884439393293     IErMin= 3 ErrMin= 2.20D-06
 ErrMax= 2.20D-06  0.00D+00 EMaxC= 1.00D-01 BMatC= 2.44D-10 BMatP= 4.98D-10
 IDIUse=1 WtCom= 1.00D+00 WtEn= 0.00D+00
 Coeff-Com:  0.357D-01 0.407D+00 0.558D+00
 Coeff:      0.357D-01 0.407D+00 0.558D+00
 Gap=     0.276 Goal=   None    Shift=    0.000
 RMSDP=1.33D-07 MaxDP=2.73D-06 DE=-2.86D-10 OVMax= 3.62D-06

 Cycle  10  Pass 1  IDiag  1:
 E= -95.8884439395199     Delta-E=       -0.000000000191 Rises=F Damp=F
 DIIS: error= 2.66D-07 at cycle   4 NSaved=   4.
 NSaved= 4 IEnMin= 4 EnMin= -95.8884439395199     IErMin= 4 ErrMin= 2.66D-07
 ErrMax= 2.66D-07  0.00D+00 EMaxC= 1.00D-01 BMatC= 4.91D-12 BMatP= 2.44D-10
 IDIUse=1 WtCom= 1.00D+00 WtEn= 0.00D+00
 Coeff-Com: -0.796D-02 0.105D+00 0.195D+00 0.709D+00
 Coeff:     -0.796D-02 0.105D+00 0.195D+00 0.709D+00
 Gap=     0.276 Goal=   None    Shift=    0.000
 RMSDP=2.70D-08 MaxDP=4.77D-07 DE=-1.91D-10 OVMax= 5.93D-07

 Cycle  11  Pass 1  IDiag  1:
 E= -95.8884439395239     Delta-E=       -0.000000000004 Rises=F Damp=F
 DIIS: error= 9.21D-08 at cycle   5 NSaved=   5.
 NSaved= 5 IEnMin= 5 EnMin= -95.8884439395239     IErMin= 5 ErrMin= 9.21D-08
 ErrMax= 9.21D-08  0.00D+00 EMaxC= 1.00D-01 BMatC= 3.25D-13 BMatP= 4.91D-12
 IDIUse=1 WtCom= 1.00D+00 WtEn= 0.00D+00
 Coeff-Com: -0.393D-02 0.348D-01 0.658D-01 0.307D+00 0.596D+00
 Coeff:     -0.393D-02 0.348D-01 0.658D-01 0.307D+00 0.596D+00
 Gap=     0.276 Goal=   None    Shift=    0.000
 RMSDP=7.38D-09 MaxDP=1.27D-07 DE=-4.01D-12 OVMax= 1.77D-07

 SCF Done:  E(RB3LYP) =  -95.8884439395     A.U. after   11 cycles
            NFock= 11  Conv=0.74D-08     -V/T= 2.0042
 KE= 9.549137070049D+01 PE=-3.069912495683D+02 EE= 7.368716143932D+01
 Leave Link  502 at Sat Feb 16 13:50:10 2019, MaxMem=   196608000 cpu:        57.3
 (Enter /cm/shared/c3ddb/gaussian/09.d01/g09/l508.exe)
 QCSCF skips out because SCF is already converged.
 Leave Link  508 at Sat Feb 16 13:50:10 2019, MaxMem=   196608000 cpu:         0.0
 (Enter /cm/shared/c3ddb/gaussian/09.d01/g09/l801.exe)
 DoSCS=F DFT=T ScalE2(SS,OS)=  1.000000  1.000000
 Range of M.O.s used for correlation:     1    66
 NBasis=    66 NAE=     9 NBE=     9 NFC=     0 NFV=     0
 NROrb=     66 NOA=     9 NOB=     9 NVA=    57 NVB=    57
 Leave Link  801 at Sat Feb 16 13:50:10 2019, MaxMem=   196608000 cpu:         0.2
 (Enter /cm/shared/c3ddb/gaussian/09.d01/g09/l1101.exe)
 Using compressed storage, NAtomX=     7.
 Will process      8 centers per pass.
 Leave Link 1101 at Sat Feb 16 13:50:11 2019, MaxMem=   196608000 cpu:         6.7
 (Enter /cm/shared/c3ddb/gaussian/09.d01/g09/l1102.exe)
 Symmetrizing basis deriv contribution to polar:
 IMax=3 JMax=2 DiffMx= 0.00D+00
 Leave Link 1102 at Sat Feb 16 13:50:11 2019, MaxMem=   196608000 cpu:         0.6
 (Enter /cm/shared/c3ddb/gaussian/09.d01/g09/l1110.exe)
 Forming Gx(P) for the SCF density, NAtomX=     7.
 Integral derivatives from FoFJK, PRISM(SPDF).
 Do as many integral derivatives as possible in FoFJK.
 G2DrvN: MDV=     196607840.
 G2DrvN: will do     8 centers at a time, making    1 passes.
 Calling FoFCou, ICntrl=  3107 FMM=F I1Cent=   0 AccDes= 0.00D+00.
 FoFJK:  IHMeth= 1 ICntrl=    3107 DoSepK=F KAlg= 0 I1Cent=   0 FoldK=F
 IRaf=         0 NMat=   1 IRICut=       1 DoRegI=T DoRafI=F ISym2E= 1.
 FoFCou: FMM=F IPFlag=           0 FMFlag=      100000 FMFlg1=           0
         NFxFlg=           0 DoJE=F BraDBF=F KetDBF=F FulRan=T
         wScrn=  0.000000 ICntrl=    3107 IOpCl=  0 I1Cent=           0 NGrid=           0
         NMat0=    1 NMatS0=      1 NMatT0=    0 NMatD0=    1 NMtDS0=    0 NMtDT0=    0
 Petite list used in FoFCou.
 End of G2Drv F.D. properties file   721 does not exist.
 End of G2Drv F.D. properties file   722 does not exist.
 End of G2Drv F.D. properties file   788 does not exist.
 Leave Link 1110 at Sat Feb 16 13:50:14 2019, MaxMem=   196608000 cpu:        14.9
 (Enter /cm/shared/c3ddb/gaussian/09.d01/g09/l1002.exe)
 Minotr:  Closed shell wavefunction.
          IDoAtm=1111111
          Direct CPHF calculation.
          Differentiating once with respect to electric field.
                with respect to dipole field.
          Differentiating once with respect to nuclear coordinates.
          Using symmetry in CPHF.
          Requested convergence is 1.0D-08 RMS, and 1.0D-07 maximum.
          Secondary convergence is 1.0D-12 RMS, and 1.0D-12 maximum.
          NewPWx=T KeepS1=F KeepF1=F KeepIn=T MapXYZ=F SortEE=F KeepMc=T.
          MDV=     196607860 using IRadAn=       2.
 Generate precomputed XC quadrature information.
 Keep R1 ints in memory in symmetry-blocked form, NReq=3689836.
 FoFCou: FMM=F IPFlag=           0 FMFlag=           0 FMFlg1=           0
         NFxFlg=           0 DoJE=F BraDBF=F KetDBF=F FulRan=T
         wScrn=  0.000000 ICntrl=     600 IOpCl=  0 I1Cent=           0 NGrid=           0
         NMat0=    1 NMatS0=   2211 NMatT0=    0 NMatD0=    1 NMtDS0=    0 NMtDT0=    0
 Petite list used in FoFCou.
          Solving linear equations simultaneously, MaxMat=       0.
          There are    18 degrees of freedom in the 1st order CPHF.  IDoFFX=4 NUNeed=    18.
     18 vectors produced by pass  0 Test12= 2.85D-15 5.56D-09 XBig12= 1.18D+01 1.41D+00.
 AX will form    18 AO Fock derivatives at one time.
     18 vectors produced by pass  1 Test12= 2.85D-15 5.56D-09 XBig12= 6.76D-01 2.95D-01.
     18 vectors produced by pass  2 Test12= 2.85D-15 5.56D-09 XBig12= 9.91D-03 3.16D-02.
     18 vectors produced by pass  3 Test12= 2.85D-15 5.56D-09 XBig12= 2.47D-05 1.73D-03.
     18 vectors produced by pass  4 Test12= 2.85D-15 5.56D-09 XBig12= 2.72D-08 3.75D-05.
      8 vectors produced by pass  5 Test12= 2.85D-15 5.56D-09 XBig12= 2.18D-11 1.35D-06.
      3 vectors produced by pass  6 Test12= 2.85D-15 5.56D-09 XBig12= 1.91D-14 3.94D-08.
 InvSVY:  IOpt=1 It=  1 EMax= 8.88D-16
 Solved reduced A of dimension   101 with    18 vectors.
 FullF1:  Do perturbations    1 to    18.
 Isotropic polarizability for W=    0.000000       20.93 Bohr**3.
 End of Minotr F.D. properties file   721 does not exist.
 End of Minotr F.D. properties file   722 does not exist.
 End of Minotr F.D. properties file   788 does not exist.
 Leave Link 1002 at Sat Feb 16 13:50:16 2019, MaxMem=   196608000 cpu:        20.7
 (Enter /cm/shared/c3ddb/gaussian/09.d01/g09/l601.exe)
 Copying SCF densities to generalized density rwf, IOpCl= 0 IROHF=0.

 **********************************************************************

            Population analysis using the SCF density.

 **********************************************************************

 Orbital symmetries:
       Occupied  (A') (A') (A') (A') (A") (A') (A') (A") (A')
       Virtual   (A') (A') (A") (A') (A") (A') (A") (A') (A') (A")
                 (A') (A') (A") (A') (A') (A") (A') (A') (A') (A")
                 (A') (A") (A') (A") (A") (A') (A') (A") (A') (A")
                 (A') (A") (A') (A') (A") (A') (A') (A") (A') (A")
                 (A') (A') (A") (A') (A") (A') (A') (A') (A") (A')
                 (A') (A") (A') (A") (A') (A') (A')
 The electronic state is 1-A'.
 Alpha  occ. eigenvalues --  -14.28197 -10.18279  -0.87127  -0.65834  -0.48692
 Alpha  occ. eigenvalues --   -0.43793  -0.40087  -0.36740  -0.23442
 Alpha virt. eigenvalues --    0.04196   0.07866   0.09778   0.11790   0.13934
 Alpha virt. eigenvalues --    0.21428   0.30996   0.32994   0.37564   0.37988
 Alpha virt. eigenvalues --    0.48208   0.54469   0.58438   0.58639   0.63857
 Alpha virt. eigenvalues --    0.71826   0.72970   0.74147   1.02703   1.05785
 Alpha virt. eigenvalues --    1.05877   1.32458   1.38480   1.46075   1.48328
 Alpha virt. eigenvalues --    1.49883   1.55194   1.62539   1.64540   1.70666
 Alpha virt. eigenvalues --    1.75459   1.84355   1.95174   2.02433   2.12594
 Alpha virt. eigenvalues --    2.15188   2.28490   2.34930   2.40642   2.43115
 Alpha virt. eigenvalues --    2.43651   2.54072   2.54500   2.58597   2.73258
 Alpha virt. eigenvalues --    2.73796   2.85515   2.95030   3.10606   3.38585
 Alpha virt. eigenvalues --    3.74895   3.80269   4.01082   4.72007   4.83285
 Alpha virt. eigenvalues --   23.87917  35.56838
          Condensed to atoms (all electrons):
               1          2          3          4          5          6
     1  N    6.503388   0.329141  -0.030929  -0.044635  -0.030929   0.372696
     2  C    0.329141   4.760393   0.402581   0.408124   0.402581  -0.048675
     3  H   -0.030929   0.402581   0.586901  -0.042021  -0.027267  -0.008547
     4  H   -0.044635   0.408124  -0.042021   0.648229  -0.042021  -0.005857
     5  H   -0.030929   0.402581  -0.027267  -0.042021   0.586901   0.010078
     6  H    0.372696  -0.048675  -0.008547  -0.005857   0.010078   0.536469
     7  H    0.372696  -0.048675   0.010078  -0.005857  -0.008547  -0.043388
               7
     1  N    0.372696
     2  C   -0.048675
     3  H    0.010078
     4  H   -0.005857
     5  H   -0.008547
     6  H   -0.043388
     7  H    0.536469
 Mulliken charges:
               1
     1  N   -0.471427
     2  C   -0.205469
     3  H    0.109205
     4  H    0.084037
     5  H    0.109205
     6  H    0.187224
     7  H    0.187224
 Sum of Mulliken charges =   0.00000
 Mulliken charges with hydrogens summed into heavy atoms:
               1
     1  N   -0.096979
     2  C    0.096979
 APT charges:
               1
     1  N   -0.428501
     2  C    0.355750
     3  H   -0.032112
     4  H   -0.103086
     5  H   -0.032112
     6  H    0.120031
     7  H    0.120031
 Sum of APT charges =   0.00000
 APT charges with hydrogens summed into heavy atoms:
               1
     1  N   -0.188440
     2  C    0.188440
 Electronic spatial extent (au):  <R**2>=             95.5177
 Charge=              0.0000 electrons
 Dipole moment (field-independent basis, Debye):
    X=              1.3354    Y=              0.3324    Z=              0.0000  Tot=              1.3761
 Quadrupole moment (field-independent basis, Debye-Ang):
   XX=            -14.8847   YY=            -14.2098   ZZ=            -12.6697
   XY=             -2.1283   XZ=              0.0000   YZ=              0.0000
 Traceless Quadrupole moment (field-independent basis, Debye-Ang):
   XX=             -0.9633   YY=             -0.2884   ZZ=              1.2517
   XY=             -2.1283   XZ=              0.0000   YZ=              0.0000
 Octapole moment (field-independent basis, Debye-Ang**2):
  XXX=              1.3624  YYY=             -2.5178  ZZZ=              0.0000  XYY=              2.3097
  XXY=              0.0466  XXZ=              0.0000  XZZ=              0.4613  YZZ=             -1.9996
  YYZ=              0.0000  XYZ=              0.0000
 Hexadecapole moment (field-independent basis, Debye-Ang**3):
 XXXX=            -24.6047 YYYY=            -76.5721 ZZZZ=            -23.9913 XXXY=              1.2405
 XXXZ=              0.0000 YYYX=             -1.2047 YYYZ=              0.0000 ZZZX=              0.0000
 ZZZY=              0.0000 XXYY=            -16.8972 XXZZ=             -7.7321 YYZZ=            -14.9889
 XXYZ=              0.0000 YYXZ=              0.0000 ZZXY=             -1.2034
 N-N= 4.192427348893D+01 E-N=-3.069912434632D+02  KE= 9.549137070049D+01
 Symmetry A'   KE= 9.078586521691D+01
 Symmetry A"   KE= 4.705505483579D+00
  Exact polarizability:  18.886  -0.884  22.958   0.000   0.000  20.951
 Approx polarizability:  24.074  -0.805  27.454   0.000   0.000  27.563
 No NMR shielding tensors so no spin-rotation constants.
 Leave Link  601 at Sat Feb 16 13:50:18 2019, MaxMem=   196608000 cpu:        10.8
 (Enter /cm/shared/c3ddb/gaussian/09.d01/g09/l701.exe)
 Compute integral second derivatives.
 ... and contract with generalized density number  0.
 Entering OneElI...
 Calculate overlap and kinetic energy integrals
    NBasis =  68  MinDer = 2  MaxDer = 2
 Requested accuracy = 0.1000D-12
 PrsmSu:  NPrtUS=   8 ThrOK=T IAlg=1 NPAlg=1 LenDen=           0.
 Prism:   IPart=     0 DynPar=F LinDyn=F Incr=           1.
 PRISM was handed    24558885 working-precision words and   465 shell-pairs
 PRISM was handed    24558885 working-precision words and   465 shell-pairs
 PRISM was handed    24558885 working-precision words and   465 shell-pairs
 PRISM was handed    24558885 working-precision words and   465 shell-pairs
 PRISM was handed    24558885 working-precision words and   465 shell-pairs
 PRISM was handed    24558885 working-precision words and   465 shell-pairs
 PRISM was handed    24558885 working-precision words and   465 shell-pairs
 PRISM was handed    24558885 working-precision words and   465 shell-pairs
 IPart=  1 NShTot=          74 NBatch=          34 AvBLen=         2.2
 IPart=  0 NShTot=          77 NBatch=          36 AvBLen=         2.1
 IPart=  5 NShTot=          49 NBatch=          18 AvBLen=         2.7
 IPart=  3 NShTot=          57 NBatch=          24 AvBLen=         2.4
 IPart=  2 NShTot=          60 NBatch=          27 AvBLen=         2.2
 IPart=  6 NShTot=          49 NBatch=          18 AvBLen=         2.7
 IPart=  7 NShTot=          47 NBatch=          18 AvBLen=         2.6
 IPart=  4 NShTot=          52 NBatch=          21 AvBLen=         2.5
 PrSmSu:  NxtVal=              9.
 Entering OneElI...
 Calculate potential energy integrals
    NBasis =  68  MinDer = 2  MaxDer = 2
 Requested accuracy = 0.1000D-12
 PrsmSu:  NPrtUS=   8 ThrOK=T IAlg=1 NPAlg=1 LenDen=           0.
 Prism:   IPart=     0 DynPar=F LinDyn=F Incr=           4.
 PRISM was handed    24560071 working-precision words and   465 shell-pairs
 PRISM was handed    24560071 working-precision words and   465 shell-pairs
 PRISM was handed    24560071 working-precision words and   465 shell-pairs
 PRISM was handed    24560071 working-precision words and   465 shell-pairs
 PRISM was handed    24560071 working-precision words and   465 shell-pairs
 PRISM was handed    24560071 working-precision words and   465 shell-pairs
 PRISM was handed    24560071 working-precision words and   465 shell-pairs
 PRISM was handed    24560071 working-precision words and   465 shell-pairs
 IPart=  0 NShTot=         539 NBatch=          77 AvBLen=         7.0
 IPart=  1 NShTot=         497 NBatch=          71 AvBLen=         7.0
 IPart=  7 NShTot=         329 NBatch=          47 AvBLen=         7.0
 IPart=  4 NShTot=         371 NBatch=          53 AvBLen=         7.0
 IPart=  3 NShTot=         413 NBatch=          59 AvBLen=         7.0
 IPart=  6 NShTot=         343 NBatch=          49 AvBLen=         7.0
 IPart=  5 NShTot=         343 NBatch=          49 AvBLen=         7.0
 IPart=  2 NShTot=         420 NBatch=          60 AvBLen=         7.0
 PrSmSu:  NxtVal=             33.
 Polarizability after L701:
                1             2             3 
      1  0.188855D+02
      2 -0.884160D+00  0.229584D+02
      3  0.000000D+00  0.000000D+00  0.209508D+02
 Dipole Derivatives after L701:
                 1             2             3             4             5 
      1  -0.462330D+00 -0.150264D+00  0.000000D+00  0.320380D+00  0.921416D-01
      2  -0.166183D+00 -0.631070D+00  0.000000D+00 -0.592980D-02  0.566271D+00
      3   0.000000D+00  0.000000D+00 -0.192104D+00  0.000000D+00  0.000000D+00
                 6             7             8             9            10 
      1   0.000000D+00  0.573756D-02  0.300265D-01  0.997043D-01 -0.201925D+00
      2   0.000000D+00  0.350439D-01 -0.128316D-01 -0.889398D-01 -0.166386D+00
      3   0.180599D+00  0.100578D+00 -0.421851D-01 -0.892429D-01  0.000000D+00
                11            12            13            14            15 
      1  -0.106683D+00  0.000000D+00  0.573756D-02  0.300265D-01 -0.997043D-01
      2  -0.158339D+00  0.000000D+00  0.350439D-01 -0.128316D-01  0.889398D-01
      3   0.000000D+00  0.510071D-01 -0.100578D+00  0.421851D-01 -0.892429D-01
                16            17            18            19            20 
      1   0.166200D+00  0.523765D-01 -0.914423D-01  0.166200D+00  0.523765D-01
      2   0.134206D+00  0.124401D+00  0.226700D-01  0.134206D+00  0.124401D+00
      3  -0.146470D+00 -0.346709D-02  0.694917D-01  0.146470D+00  0.346709D-02
                21 
      1   0.914423D-01
      2  -0.226700D-01
      3   0.694917D-01
 Hessian after L701:
                1             2             3             4             5 
      1  0.947961D+01
      2  0.944907D+00  0.414373D+01
      3  0.000000D+00  0.000000D+00  0.743003D+01
      4 -0.463671D+01  0.161301D+00  0.000000D+00  0.958944D+01
      5  0.214924D+00  0.168784D+01  0.000000D+00 -0.273362D+00  0.469468D+01
      6  0.000000D+00  0.000000D+00 -0.471889D+01  0.000000D+00  0.000000D+00
      7  0.378303D-01 -0.104100D+00 -0.852631D-01 -0.202965D+01 -0.335918D+00
      8 -0.690631D-01 -0.317943D-01  0.316666D-01 -0.371396D+00 -0.221822D+01
      9 -0.779884D-01  0.929068D-01  0.652315D-01 -0.734338D+00  0.535290D+00
     10  0.225261D+00  0.117590D+00  0.000000D+00 -0.961748D+00  0.824885D+00
     11  0.130957D+00 -0.211493D-01  0.000000D+00  0.833467D+00 -0.196811D+01
     12  0.000000D+00  0.000000D+00  0.196008D-01  0.000000D+00  0.000000D+00
     13  0.378303D-01 -0.104100D+00  0.852631D-01 -0.202965D+01 -0.335918D+00
     14 -0.690631D-01 -0.317943D-01 -0.316666D-01 -0.371396D+00 -0.221822D+01
     15  0.779884D-01 -0.929068D-01  0.652315D-01  0.734338D+00 -0.535290D+00
     16 -0.257191D+01 -0.507800D+00  0.112308D+01  0.341572D-01 -0.473052D-01
     17 -0.576331D+00 -0.287341D+01 -0.897675D+00  0.106927D-01  0.110151D-01
     18  0.118759D+01 -0.830304D+00 -0.143060D+01  0.193910D-01 -0.407076D-01
     19 -0.257191D+01 -0.507800D+00 -0.112308D+01  0.341572D-01 -0.473052D-01
     20 -0.576331D+00 -0.287341D+01  0.897675D+00  0.106927D-01  0.110151D-01
     21 -0.118759D+01  0.830304D+00 -0.143060D+01 -0.193910D-01  0.407076D-01
                6             7             8             9            10 
      6  0.959783D+01
      7 -0.719237D+00  0.200747D+01
      8  0.582528D+00  0.476999D+00  0.214589D+01
      9 -0.130820D+01  0.776471D+00 -0.687762D+00  0.116595D+01
     10  0.000000D+00 -0.514828D-01 -0.434411D-02  0.536906D-01  0.842375D+00
     11  0.000000D+00 -0.476272D-02  0.630588D-01  0.113271D-01 -0.937752D+00
     12 -0.243089D+01  0.756392D-01  0.123508D-01  0.287683D-01  0.000000D+00
     13  0.719237D+00  0.279751D-01 -0.625306D-02  0.223564D-01 -0.514828D-01
     14 -0.582528D+00 -0.625306D-02  0.223314D-01 -0.111933D-01 -0.434411D-02
     15 -0.130820D+01 -0.223564D-01  0.111933D-01  0.150149D-01 -0.536906D-01
     16  0.347669D-01  0.760698D-02  0.732010D-02 -0.709149D-02 -0.146138D-02
     17  0.119709D-01  0.845763D-02 -0.166827D-01  0.318416D-02  0.198234D-02
     18  0.841758D-01  0.721349D-02 -0.632127D-02 -0.236349D-03 -0.887697D-02
     19 -0.347669D-01  0.244904D-03 -0.332627D-01 -0.331006D-01 -0.146138D-02
     20 -0.119709D-01 -0.344226D-01  0.354157D-01  0.562467D-01  0.198234D-02
     21  0.841758D-01 -0.324675D-01  0.563446D-01  0.334771D-01  0.887697D-02
               11            12            13            14            15 
     11  0.188292D+01
     12  0.000000D+00  0.234664D+01
     13 -0.476272D-02 -0.756392D-01  0.200747D+01
     14  0.630588D-01 -0.123508D-01  0.476999D+00  0.214589D+01
     15 -0.113271D-01  0.287683D-01 -0.776471D+00  0.687762D+00  0.116595D+01
     16 -0.857281D-02  0.331855D-02  0.244904D-03 -0.332627D-01  0.331006D-01
     17 -0.988711D-02  0.519084D-02 -0.344226D-01  0.354157D-01 -0.562467D-01
     18 -0.293509D-02  0.355457D-02  0.324675D-01 -0.563446D-01  0.334771D-01
     19 -0.857281D-02 -0.331855D-02  0.760698D-02  0.732010D-02  0.709149D-02
     20 -0.988711D-02 -0.519084D-02  0.845763D-02 -0.166827D-01 -0.318416D-02
     21  0.293509D-02  0.355457D-02 -0.721349D-02  0.632127D-02 -0.236349D-03
               16            17            18            19            20 
     16  0.245554D+01
     17  0.600948D+00  0.276971D+01
     18 -0.121248D+01  0.935094D+00  0.143065D+01
     19  0.758280D-01 -0.113275D-01 -0.253050D-01  0.245554D+01
     20 -0.113275D-01  0.838398D-01  0.151886D-02  0.600948D+00  0.276971D+01
     21  0.253050D-01 -0.151886D-02 -0.121012D+00  0.121248D+01 -0.935094D+00
               21 
     21  0.143065D+01
 Leave Link  701 at Sat Feb 16 13:50:18 2019, MaxMem=   196608000 cpu:         1.9
 (Enter /cm/shared/c3ddb/gaussian/09.d01/g09/l702.exe)
 L702 exits ... SP integral derivatives will be done elsewhere.
 Leave Link  702 at Sat Feb 16 13:50:18 2019, MaxMem=   196608000 cpu:         0.2
 (Enter /cm/shared/c3ddb/gaussian/09.d01/g09/l703.exe)
 Compute integral second derivatives, UseDBF=F ICtDFT=           0.
 Integral derivatives from FoFJK, PRISM(SPDF).
 ICntrl=    100127.
 Calling FoFJK, ICntrl=    100127 FMM=F ISym2X=1 I1Cent= 0 IOpClX= 0 NMat=1 NMatS=1 NMatT=0.
 FoFJK:  IHMeth= 1 ICntrl=  100127 DoSepK=F KAlg= 0 I1Cent=   0 FoldK=F
 IRaf=         0 NMat=   1 IRICut=       1 DoRegI=T DoRafI=F ISym2E= 1.
 FoFCou: FMM=F IPFlag=           0 FMFlag=      100000 FMFlg1=         800
         NFxFlg=           0 DoJE=F BraDBF=F KetDBF=F FulRan=T
         wScrn=  0.000000 ICntrl=  100127 IOpCl=  0 I1Cent=           0 NGrid=           0
         NMat0=    1 NMatS0=      1 NMatT0=    0 NMatD0=    1 NMtDS0=    0 NMtDT0=    0
 Petite list used in FoFCou.
 FoFCou:  KetSym=F NOpSet=  2 NOpAb=2 NOp=  2.
 FoFCou:  CnvScl= 1.00D+00 Thresh= 1.00D-10 IAcrcy=      10.
 PrismS was handed   196565965 working-precision words and   465 shell-pairs
 FoFCou: LinMIO=F DoNuc=F BraDBF=F KetDBF=F HaveP=T PDBF=F HaveZ=T HaveW=F
         NIJTC =      10 NIJTAt=       0 NIJTCD=       0 NIJTT =      10
         IJTBeg=       1 IJTEnd=      10 KLTBeg=       1 KLTEnd=      10
         IPTBeg=       1 IPTEnd=      10 IPTBCv=       1 IPTECv=      10
         IZTBeg=       1 IZTEnd=      10 IZTBCv=       1 IZTECv=      10
         IWTBeg=      11 IWTEnd=      10 IWTBCv=      11 IWTECv=      10
         INTBeg=       1 INTEnd=       0 IFTBCv=       1 IFTECv=      10
 NCel replicated for PrismC:     1
 CoulSu:  IncDef=  1024 NBBP=         108345 NTPThr=   100 NPartT=    8 Incr=         135 LDynOK=F.
 CoulSu:  NPrtUS=   8 ThrOK=T IAlg=1 NPAlg=1 LenDen=           0 LWGrdD=           0 DoCopy=F.
 Enter PrismC: JobTyp=22 DoJE=F Cont=F.
 PrismC:  IPart=     0 DynPar=T LinDyn=F Incr=         135 UseFst=F UseS4=T IGathr=2.
 Enter PrismC: JobTyp=22 DoJE=F Cont=F.
 PrismC was handed    24559781 working-precision words and   465 shell-pairs
 PrismC was handed    24559781 working-precision words and   465 shell-pairs
 Enter PrismC: JobTyp=22 DoJE=F Cont=F.
 Enter PrismC: JobTyp=22 DoJE=F Cont=F.
 Enter PrismC: JobTyp=22 DoJE=F Cont=F.
 PrismC was handed    24559781 working-precision words and   465 shell-pairs
 PrismC was handed    24559781 working-precision words and   465 shell-pairs
 Enter PrismC: JobTyp=22 DoJE=F Cont=F.
 Enter PrismC: JobTyp=22 DoJE=F Cont=F.
 PrismC was handed    24559781 working-precision words and   465 shell-pairs
 PrismC was handed    24559781 working-precision words and   465 shell-pairs
 Enter PrismC: JobTyp=22 DoJE=F Cont=F.
 PrismC was handed    24559781 working-precision words and   465 shell-pairs
 PrismC was handed    24559781 working-precision words and   465 shell-pairs
 IPart=  0 NShTot=        9259 NShNF=        9259 NShFF=           0 NBatch=         523 AvBLen=        17.7
 IPart=  1 NShTot=        7803 NShNF=        7803 NShFF=           0 NBatch=         460 AvBLen=        17.0
 IPart=  7 NShTot=        7509 NShNF=        7509 NShFF=           0 NBatch=         443 AvBLen=        17.0
 IPart=  5 NShTot=        6537 NShNF=        6537 NShFF=           0 NBatch=         349 AvBLen=        18.7
 IPart=  4 NShTot=        6610 NShNF=        6610 NShFF=           0 NBatch=         362 AvBLen=        18.3
 IPart=  6 NShTot=        6142 NShNF=        6142 NShFF=           0 NBatch=         384 AvBLen=        16.0
 IPart=  2 NShTot=        5916 NShNF=        5916 NShFF=           0 NBatch=         329 AvBLen=        18.0
 IPart=  3 NShTot=        7184 NShNF=        7184 NShFF=           0 NBatch=         445 AvBLen=        16.1
 CoulSu:  NxtVal=          74656.
 ReadGW:  IGet=0 IStart=           1 Next=           1 LGW=           0.
 Remaining memory in FofDFT      187.49 Mw
 CkSvGd:  ISavGI=        -1 IRadAn=       4 IRASav=       0 ISavGd=        -1.
 CalDSu:  NPrtUS=   8 ThrOK=T IAlg=1 NPAlg=2 DoDPD=T LenP=        2346 LenD1P=             0.
 IPart=  0 IRanGd=          0 ScrnBf=T ScrnGd=T RCrit=4.00D+00 DoMicB=T.
 IPart=  6         3295 of         3785 points in      12 batches and       26 microbatches, Max-NSigAt=       7 Max-NSgAt2=       7
 IPart=  3         2996 of         3252 points in       9 batches and       21 microbatches, Max-NSigAt=       7 Max-NSgAt2=       7
 IPart=  7         3413 of         3583 points in       9 batches and       21 microbatches, Max-NSigAt=       7 Max-NSgAt2=       7
 IPart=  1         3150 of         3475 points in      10 batches and       32 microbatches, Max-NSigAt=       7 Max-NSgAt2=       7
 IPart=  0         3870 of         4087 points in      11 batches and       29 microbatches, Max-NSigAt=       7 Max-NSgAt2=       7
 IPart=  5         2985 of         3200 points in       9 batches and       25 microbatches, Max-NSigAt=       7 Max-NSgAt2=       7
 IPart=  4         3243 of         3482 points in      10 batches and       21 microbatches, Max-NSigAt=       7 Max-NSgAt2=       7
 IPart=  2         3548 of         3973 points in      11 batches and       26 microbatches, Max-NSigAt=       7 Max-NSgAt2=       7
 Polarizability after L703:
                1             2             3 
      1  0.188855D+02
      2 -0.884160D+00  0.229584D+02
      3  0.000000D+00  0.000000D+00  0.209508D+02
 Dipole Derivatives after L703:
                 1             2             3             4             5 
      1  -0.462330D+00 -0.150264D+00  0.000000D+00  0.320380D+00  0.921416D-01
      2  -0.166183D+00 -0.631070D+00  0.000000D+00 -0.592980D-02  0.566271D+00
      3   0.000000D+00  0.000000D+00 -0.192104D+00  0.000000D+00  0.000000D+00
                 6             7             8             9            10 
      1   0.000000D+00  0.573756D-02  0.300265D-01  0.997043D-01 -0.201925D+00
      2   0.000000D+00  0.350439D-01 -0.128316D-01 -0.889398D-01 -0.166386D+00
      3   0.180599D+00  0.100578D+00 -0.421851D-01 -0.892429D-01  0.000000D+00
                11            12            13            14            15 
      1  -0.106683D+00  0.000000D+00  0.573756D-02  0.300265D-01 -0.997043D-01
      2  -0.158339D+00  0.000000D+00  0.350439D-01 -0.128316D-01  0.889398D-01
      3   0.000000D+00  0.510071D-01 -0.100578D+00  0.421851D-01 -0.892429D-01
                16            17            18            19            20 
      1   0.166200D+00  0.523765D-01 -0.914423D-01  0.166200D+00  0.523765D-01
      2   0.134206D+00  0.124401D+00  0.226700D-01  0.134206D+00  0.124401D+00
      3  -0.146470D+00 -0.346709D-02  0.694917D-01  0.146470D+00  0.346709D-02
                21 
      1   0.914423D-01
      2  -0.226700D-01
      3   0.694917D-01
 Hessian after L703:
                1             2             3             4             5 
      1  0.285999D+00
      2 -0.158768D+00  0.457356D+00
      3  0.000000D+00  0.000000D+00  0.674193D+00
      4 -0.609052D-01 -0.202756D-01  0.000000D+00  0.544800D+00
      5  0.283540D-01 -0.215789D+00  0.000000D+00 -0.134845D-01  0.469622D+00
      6  0.000000D+00  0.000000D+00 -0.100769D+00  0.000000D+00  0.000000D+00
      7  0.216815D-02  0.175954D-02 -0.145216D-02 -0.113900D+00  0.390416D-01
      8  0.156000D-01 -0.190446D-01 -0.326721D-01  0.358666D-01 -0.692955D-01
      9 -0.168980D-02 -0.147132D-02  0.271980D-02  0.104915D+00 -0.644697D-01
     10  0.858304D-02 -0.494019D-02  0.000000D+00 -0.248528D+00 -0.776816D-01
     11 -0.295643D-01 -0.300072D-01  0.000000D+00 -0.794702D-01 -0.814391D-01
     12  0.000000D+00  0.000000D+00  0.354742D-02  0.000000D+00  0.000000D+00
     13  0.216815D-02  0.175954D-02  0.145216D-02 -0.113900D+00  0.390416D-01
     14  0.156000D-01 -0.190446D-01  0.326721D-01  0.358666D-01 -0.692955D-01
     15  0.168980D-02  0.147132D-02  0.271980D-02 -0.104915D+00  0.644697D-01
     16 -0.119006D+00  0.902322D-01 -0.177081D+00 -0.378293D-02 -0.763553D-02
     17  0.643890D-01 -0.867356D-01  0.795439D-01  0.207485D-01 -0.169016D-01
     18 -0.133809D+00  0.933871D-01 -0.291205D+00 -0.127936D-02 -0.170321D-02
     19 -0.119006D+00  0.902322D-01  0.177081D+00 -0.378293D-02 -0.763553D-02
     20  0.643890D-01 -0.867356D-01 -0.795439D-01  0.207485D-01 -0.169016D-01
     21  0.133809D+00 -0.933871D-01 -0.291205D+00  0.127936D-02  0.170321D-02
                6             7             8             9            10 
      6  0.588410D+00
      7  0.105870D+00  0.117887D+00
      8 -0.572791D-01 -0.426581D-01  0.863203D-01
      9 -0.219666D+00 -0.115755D+00  0.718269D-01  0.233827D+00
     10  0.000000D+00 -0.155639D-01 -0.497810D-02 -0.374736D-03  0.268011D+00
     11  0.000000D+00  0.786007D-02  0.484300D-02  0.105202D-02  0.937121D-01
     12 -0.532414D-01  0.252924D-01  0.986498D-02  0.901575D-03  0.000000D+00
     13 -0.105870D+00  0.896957D-02 -0.613662D-02  0.134611D-01 -0.155639D-01
     14  0.572791D-01 -0.613662D-02  0.354605D-02 -0.747477D-02 -0.497810D-02
     15 -0.219666D+00 -0.134611D-01  0.747477D-02 -0.204740D-01  0.374736D-03
     16  0.960524D-03 -0.279048D-03  0.735058D-03 -0.164437D-03  0.153107D-02
     17  0.344121D-01  0.419560D-03  0.116312D-02 -0.492396D-03 -0.567031D-03
     18  0.246666D-02  0.254032D-03  0.454391D-04  0.431515D-03  0.515728D-03
     19 -0.960524D-03  0.718939D-03  0.157113D-02 -0.391886D-03  0.153107D-02
     20 -0.344121D-01 -0.286035D-03 -0.753241D-02  0.102926D-02 -0.567031D-03
     21  0.246666D-02 -0.748567D-03  0.739186D-03  0.226061D-02 -0.515728D-03
               11            12            13            14            15 
     11  0.988853D-01
     12  0.000000D+00  0.478842D-01
     13  0.786007D-02 -0.252924D-01  0.117887D+00
     14  0.484300D-02 -0.986498D-02 -0.426581D-01  0.863203D-01
     15 -0.105202D-02  0.901575D-03  0.115755D+00 -0.718269D-01  0.233827D+00
     16 -0.198858D-03  0.129697D-02  0.718939D-03  0.157113D-02  0.391886D-03
     17  0.143750D-02  0.489074D-03 -0.286035D-03 -0.753241D-02 -0.102926D-02
     18 -0.985373D-03  0.333522D-05  0.748567D-03 -0.739186D-03  0.226061D-02
     19 -0.198857D-03 -0.129697D-02 -0.279048D-03  0.735058D-03  0.164437D-03
     20  0.143750D-02 -0.489074D-03  0.419560D-03  0.116312D-02  0.492396D-03
     21  0.985373D-03  0.333522D-05 -0.254032D-03 -0.454391D-04  0.431515D-03
               16            17            18            19            20 
     16  0.115427D+00
     17 -0.765794D-01  0.103779D+00
     18  0.154083D+00 -0.101464D+00  0.313248D+00
     19  0.539144D-02 -0.812459D-02 -0.205127D-01  0.115427D+00
     20 -0.812459D-02  0.478970D-02  0.114593D-01 -0.765794D-01  0.103779D+00
     21  0.205127D-01 -0.114593D-01 -0.272049D-01 -0.154083D+00  0.101464D+00
               21 
     21  0.313248D+00
 Leave Link  703 at Sat Feb 16 13:50:20 2019, MaxMem=   196608000 cpu:        15.4
 (Enter /cm/shared/c3ddb/gaussian/09.d01/g09/l716.exe)
 FrcOut:
 IF    =    53 IFX   =    74 IFXYZ =    95
 IFFX  =   116 IFFFX =   347 IFLen =    21
 IFFLen=   231 IFFFLn=     0 IEDerv=   347
 LEDerv=  1061 IFroze=  1659 ICStrt= 10589
 Dipole        = 5.25374312D-01 1.30778226D-01-1.29648896D-15
 DipoleDeriv   =-4.62330358D-01-1.66183430D-01-4.01906099D-09
                -1.50264187D-01-6.31069916D-01 1.21733384D-09
                -5.01331487D-09-2.14266958D-09-1.92104004D-01
                 3.20380390D-01-5.92980248D-03 7.12298207D-11
                 9.21416068D-02 5.66270984D-01 9.86636826D-10
                 6.74261717D-10 3.35602788D-10 1.80599235D-01
                 5.73756135D-03 3.50439424D-02 1.00577548D-01
                 3.00264962D-02-1.28315991D-02-4.21850552D-02
                 9.97042975D-02-8.89397945D-02-8.92428796D-02
                -2.01925259D-01-1.66386149D-01-1.26744768D-09
                -1.06683451D-01-1.58339444D-01-1.23430592D-11
                 1.99327707D-10-2.84355294D-10 5.10071182D-02
                 5.73756084D-03 3.50439425D-02-1.00577548D-01
                 3.00264957D-02-1.28315991D-02 4.21850555D-02
                -9.97042982D-02 8.89397942D-02-8.92428798D-02
                 1.66200054D-01 1.34205746D-01-1.46469739D-01
                 5.23765188D-02 1.24400787D-01-3.46709207D-03
                -9.14422990D-02 2.26699889D-02 6.94917059D-02
                 1.66200052D-01 1.34205745D-01 1.46469739D-01
                 5.23765202D-02 1.24400788D-01 3.46709165D-03
                 9.14423039D-02-2.26699867D-02 6.94917057D-02
 Polarizability= 1.88855111D+01-8.84160439D-01 2.29584127D+01
                -1.37280583D-08-3.82220894D-09 2.09507818D+01
 VibFq2-Diag1:  N=     21 IV=           8 MDV=   196595559 NE2=     9361692
 Full mass-weighted force constant matrix:
 Low frequencies ---   -0.0015   -0.0013   -0.0013    9.4665   23.3914   43.3306
 Low frequencies ---  319.5012  853.2709  980.7068
 OrtVCM:  Ph=1 IPass= 1 DotMx1= 0.00D+00
 OrtVCM:  IS=    1 I=    1 IndO=    1 Dot= 1.00D+00 DotN= 1.00D+00 ElMax1= 6.72D-01 ElMax1N= 6.72D-01
 OrtVCM:  Ph=2 NNew=    0 IAdd=    2 IPass= 1 DotMx2= 0.00D+00
 OrtVCM:  IS=    1 I=    2 IndO=    2 Dot= 1.00D+00 DotN= 1.00D+00 ElMax1= 6.72D-01 ElMax1N= 6.72D-01
 OrtVCM:  Ph=2 NNew=    0 IAdd=    3 IPass= 1 DotMx2= 0.00D+00
 OrtVCM:  IS=    1 I=    3 IndO=    3 Dot= 1.00D+00 DotN= 1.00D+00 ElMax1= 6.72D-01 ElMax1N= 6.72D-01
 OrtVCM:  Ph=2 NNew=    0 IAdd=    4 IPass= 1 DotMx2= 2.08D-17
 OrtVCM:  IS=    1 I=    4 IndO=    4 Dot= 1.00D+00 DotN= 1.00D+00 ElMax1= 4.69D-01 ElMax1N= 4.69D-01
 OrtVCM:  Ph=2 NNew=    0 IAdd=    5 IPass= 1 DotMx2= 1.94D-16
 OrtVCM:  IS=    1 I=    5 IndO=    5 Dot= 1.00D+00 DotN= 1.00D+00 ElMax1= 5.76D-01 ElMax1N= 5.76D-01
 OrtVCM:  Ph=2 NNew=    0 IAdd=    6 IPass= 1 DotMx2= 9.71D-17
 OrtVCM:  IS=    1 I=    6 IndO=    6 Dot= 1.00D+00 DotN= 1.00D+00 ElMax1= 5.62D-01 ElMax1N= 5.62D-01
 OrtVCM:  Ph=1 IPass= 1 DotMx1= 6.72D-01
 OrtVCM:  Ph=1 IPass= 2 DotMx1= 2.68D-16
 OrtVCM:  IS=    1 I=    1 IndO=    7 Dot= 2.18D-01 DotN= 2.18D-01 ElMax1= 2.52D-01 ElMax1N= 2.52D-01
 OrtVCM:  Ph=2 NNew=    0 IAdd=    2 IPass= 1 DotMx2= 2.89D-02
 OrtVCM:  Ph=2 NNew=    0 IAdd=    2 IPass= 2 DotMx2= 6.94D-18
 OrtVCM:  IS=    1 I=    2 IndO=    8 Dot= 5.48D-01 DotN= 5.48D-01 ElMax1= 5.48D-01 ElMax1N= 5.48D-01
 OrtVCM:  Ph=2 NNew=    0 IAdd=    3 IPass= 1 DotMx2= 9.62D-18
 OrtVCM:  IS=    1 I=    3 IndO=    9 Dot= 2.18D-01 DotN= 2.18D-01 ElMax1= 2.27D-01 ElMax1N= 2.27D-01
 OrtVCM:  Ph=2 NNew=    0 IAdd=    4 IPass= 1 DotMx2= 2.25D-01
 OrtVCM:  Ph=2 NNew=    0 IAdd=    4 IPass= 2 DotMx2= 3.43D-17
 OrtVCM:  IS=    1 I=    4 IndO=   10 Dot= 2.68D-01 DotN= 2.68D-01 ElMax1= 2.68D-01 ElMax1N= 2.68D-01
 OrtVCM:  Ph=2 NNew=    0 IAdd=    5 IPass= 1 DotMx2= 5.66D-01
 OrtVCM:  Ph=2 NNew=    0 IAdd=    5 IPass= 2 DotMx2= 4.86D-17
 OrtVCM:  IS=    1 I=    5 IndO=   11 Dot= 2.91D-01 DotN= 2.91D-01 ElMax1= 2.91D-01 ElMax1N= 2.91D-01
 OrtVCM:  Ph=2 NNew=    0 IAdd=    6 IPass= 1 DotMx2= 2.47D-01
 OrtVCM:  Ph=2 NNew=    0 IAdd=    6 IPass= 2 DotMx2= 7.63D-17
 OrtVCM:  IS=    1 I=    6 IndO=   12 Dot= 2.68D-01 DotN= 2.68D-01 ElMax1= 2.68D-01 ElMax1N= 2.68D-01
 OrtVCM:  Ph=2 NNew=    0 IAdd=    7 IPass= 1 DotMx2= 4.50D-01
 OrtVCM:  Ph=2 NNew=    0 IAdd=    7 IPass= 2 DotMx2= 9.53D-17
 OrtVCM:  IS=    1 I=    7 IndO=   13 Dot= 5.40D-01 DotN= 5.40D-01 ElMax1= 5.40D-01 ElMax1N= 5.40D-01
 OrtVCM:  Ph=2 NNew=    0 IAdd=    8 IPass= 1 DotMx2= 4.04D-01
 OrtVCM:  Ph=2 NNew=    0 IAdd=    8 IPass= 2 DotMx2= 1.18D-16
 OrtVCM:  IS=    1 I=    8 IndO=   14 Dot= 6.21D-01 DotN= 6.21D-01 ElMax1= 6.21D-01 ElMax1N= 6.21D-01
 OrtVCM:  Ph=2 NNew=    0 IAdd=    9 IPass= 1 DotMx2= 4.67D-01
 OrtVCM:  Ph=2 NNew=    0 IAdd=    9 IPass= 2 DotMx2= 9.37D-17
 OrtVCM:  IS=    1 I=    9 IndO=   15 Dot= 6.12D-01 DotN= 6.12D-01 ElMax1= 6.12D-01 ElMax1N= 6.12D-01
 OrtVCM:  Ph=2 NNew=    0 IAdd=   10 IPass= 1 DotMx2= 4.63D-01
 OrtVCM:  Ph=2 NNew=    0 IAdd=   10 IPass= 2 DotMx2= 7.39D-17
 OrtVCM:  IS=    1 I=   10 IndO=   16 Dot= 4.70D-01 DotN= 4.70D-01 ElMax1= 4.70D-01 ElMax1N= 4.70D-01
 OrtVCM:  Ph=2 NNew=    0 IAdd=   11 IPass= 1 DotMx2= 3.37D-01
 OrtVCM:  Ph=2 NNew=    0 IAdd=   11 IPass= 2 DotMx2= 1.08D-16
 OrtVCM:  IS=    1 I=   11 IndO=   17 Dot= 6.47D-01 DotN= 6.47D-01 ElMax1= 6.47D-01 ElMax1N= 6.47D-01
 OrtVCM:  Ph=2 NNew=    0 IAdd=   12 IPass= 1 DotMx2= 4.12D-01
 OrtVCM:  Ph=2 NNew=    0 IAdd=   12 IPass= 2 DotMx2= 8.59D-17
 OrtVCM:  IS=    1 I=   12 IndO=   18 Dot= 3.24D-01 DotN= 3.24D-01 ElMax1= 3.24D-01 ElMax1N= 3.24D-01
 OrtVCM:  Ph=2 NNew=    0 IAdd=   13 IPass= 1 DotMx2= 5.61D-01
 OrtVCM:  Ph=2 NNew=    0 IAdd=   13 IPass= 2 DotMx2= 2.40D-16
 OrtVCM:  IS=    1 I=   13 IndO=   19 Dot= 1.13D-01 DotN= 1.13D-01 ElMax1= 2.36D-01 ElMax1N= 2.36D-01
 OrtVCM:  Ph=2 NNew=    0 IAdd=   14 IPass= 1 DotMx2= 7.02D-01
 OrtVCM:  Ph=2 NNew=    0 IAdd=   14 IPass= 2 DotMx2= 1.24D-16
 OrtVCM:  IS=    1 I=   14 IndO=    0 Dot= 3.96D-31 DotN= 3.96D-31 ElMax1= 4.73D-16 ElMax1N= 4.73D-16
 OrtVCM:  Ph=2 NNew=    0 IAdd=   15 IPass= 1 DotMx2= 4.96D-01
 OrtVCM:  Ph=2 NNew=    0 IAdd=   15 IPass= 2 DotMx2= 1.86D-16
 OrtVCM:  IS=    1 I=   15 IndO=   20 Dot= 1.69D-01 DotN= 1.69D-01 ElMax1= 2.27D-01 ElMax1N= 2.27D-01
 SchOr2:  IPass= 1 Test2A= 1.00D-01 IOff=     0 NDo=    15 NNew=    14
 OrtVCM:  Ph=1 IPass= 1 DotMx1= 5.41D-01
 OrtVCM:  Ph=1 IPass= 2 DotMx1= 1.31D-16
 OrtVCM:  IS=    1 I=    1 IndO=    0 Dot= 3.30D-32 DotN= 3.30D-32 ElMax1= 1.28D-16 ElMax1N= 1.28D-16
 SchOr2:  IPass= 1 Test2A= 1.00D-01 IOff=    15 NDo=     1 NNew=     0
 OrtVCM:  Ph=1 IPass= 1 DotMx1= 5.51D-01
 OrtVCM:  Ph=1 IPass= 2 DotMx1= 1.56D-16
 OrtVCM:  IS=    1 I=    1 IndO=    0 Dot= 2.60D-31 DotN= 2.60D-31 ElMax1= 3.61D-16 ElMax1N= 3.61D-16
 SchOr2:  IPass= 1 Test2A= 1.00D-01 IOff=    16 NDo=     1 NNew=     0
 OrtVCM:  Ph=1 IPass= 1 DotMx1= 4.87D-01
 OrtVCM:  Ph=1 IPass= 2 DotMx1= 1.11D-16
 OrtVCM:  IS=    1 I=    1 IndO=   21 Dot= 5.00D-01 DotN= 5.00D-01 ElMax1= 5.00D-01 ElMax1N= 5.00D-01
 SchOr2:  IPass= 1 Test2A= 1.00D-01 IOff=    17 NDo=     1 NNew=     1
 VibFq2-Diag2:  N=     15 IV=           8 MDV=   196595559 NE2=    13106370
 Dipole derivatives wrt mode   1: -1.45822D-08 -8.16389D-09 -6.23343D+00
 Vibrational polarizability contributions from mode   1       0.0000000       0.0000000      10.2462467
 Vibrational hyperpolarizability contributions from mode   1       0.0000000       0.0000000       0.0000000
 Dipole derivatives wrt mode   2: -8.31485D+00 -9.75943D+00 -1.90014D-09
 Vibrational polarizability contributions from mode   2       2.5554570       3.5205288       0.0000000
 Vibrational hyperpolarizability contributions from mode   2       0.0000000       0.0000000       0.0000000
 Dipole derivatives wrt mode   3:  5.84161D-09  1.03489D-08 -1.05793D-01
 Vibrational polarizability contributions from mode   3       0.0000000       0.0000000       0.0003132
 Vibrational hyperpolarizability contributions from mode   3       0.0000000       0.0000000       0.0000000
 Dipole derivatives wrt mode   4:  3.82574D-01 -2.82321D+00 -9.07001D-09
 Vibrational polarizability contributions from mode   4       0.0035320       0.1923417       0.0000000
 Vibrational hyperpolarizability contributions from mode   4       0.0000000       0.0000000       0.0000000
 Dipole derivatives wrt mode   5: -2.67750D+00  6.75774D-02 -1.35483D-08
 Vibrational polarizability contributions from mode   5       0.1405103       0.0000895       0.0000000
 Vibrational hyperpolarizability contributions from mode   5       0.0000000       0.0000000       0.0000000
 Dipole derivatives wrt mode   6: -1.20242D-08 -1.59721D-08  4.54753D-01
 Vibrational polarizability contributions from mode   6       0.0000000       0.0000000       0.0030392
 Vibrational hyperpolarizability contributions from mode   6       0.0000000       0.0000000       0.0000000
 Dipole derivatives wrt mode   7:  9.63862D-01  1.15418D+00 -9.43989D-09
 Vibrational polarizability contributions from mode   7       0.0117029       0.0167806       0.0000000
 Vibrational hyperpolarizability contributions from mode   7       0.0000000       0.0000000       0.0000000
 Dipole derivatives wrt mode   8:  1.77179D+00 -2.07921D+00  2.58598D-08
 Vibrational polarizability contributions from mode   8       0.0376889       0.0519022       0.0000000
 Vibrational hyperpolarizability contributions from mode   8       0.0000000       0.0000000       0.0000000
 Dipole derivatives wrt mode   9: -9.25481D-10  1.05761D-08  1.84718D+00
 Vibrational polarizability contributions from mode   9       0.0000000       0.0000000       0.0397899
 Vibrational hyperpolarizability contributions from mode   9       0.0000000       0.0000000       0.0000000
 Dipole derivatives wrt mode  10: -4.08273D+00  2.49658D+00 -1.39778D-08
 Vibrational polarizability contributions from mode  10       0.1610719       0.0602295       0.0000000
 Vibrational hyperpolarizability contributions from mode  10       0.0000000       0.0000000       0.0000000
 Dipole derivatives wrt mode  11: -6.46875D+00 -7.84772D+00 -2.18537D-08
 Vibrational polarizability contributions from mode  11       0.1295944       0.1907359       0.0000000
 Vibrational hyperpolarizability contributions from mode  11       0.0000000       0.0000000       0.0000000
 Dipole derivatives wrt mode  12:  5.68278D+00 -3.04211D+00  4.62740D-09
 Vibrational polarizability contributions from mode  12       0.0933201       0.0267426       0.0000000
 Vibrational hyperpolarizability contributions from mode  12       0.0000000       0.0000000       0.0000000
 Dipole derivatives wrt mode  13:  3.92504D-08  2.09665D-08  6.20465D+00
 Vibrational polarizability contributions from mode  13       0.0000000       0.0000000       0.1087165
 Vibrational hyperpolarizability contributions from mode  13       0.0000000       0.0000000       0.0000000
 Dipole derivatives wrt mode  14: -5.97343D-01  1.08550D+00  1.54148D-08
 Vibrational polarizability contributions from mode  14       0.0007893       0.0026066       0.0000000
 Vibrational hyperpolarizability contributions from mode  14       0.0000000       0.0000000       0.0000000
 Dipole derivatives wrt mode  15: -1.43293D-07 -7.03926D-08  3.23130D-01
 Vibrational polarizability contributions from mode  15       0.0000000       0.0000000       0.0002214
 Vibrational hyperpolarizability contributions from mode  15       0.0000000       0.0000000       0.0000000
 Diagonal vibrational polarizability:
        3.1336669       4.0619573      10.3983269
 NorSel:  MapVib=      1      2      3      4      5      6      7      8      9     10
 NorSel:  MapVib=     11     12     13     14     15
 Harmonic frequencies (cm**-1), IR intensities (KM/Mole), Raman scattering
 activities (A**4/AMU), depolarization ratios for plane and unpolarized
 incident light, reduced masses (AMU), force constants (mDyne/A),
 and normal coordinates:
                      1                      2                      3
                     A"                     A'                     A"
 Frequencies --    319.4562               853.2708               980.7061
 Red. masses --      1.0306                 1.2427                 1.0525
 Frc consts  --      0.0620                 0.5331                 0.5964
 IR Inten    --     38.8557               164.3832                 0.0112
  Atom  AN      X      Y      Z        X      Y      Z        X      Y      Z
     1   7     0.00   0.00   0.04     0.08   0.10   0.00     0.00   0.00   0.00
     2   6     0.00   0.00   0.00     0.02  -0.04   0.00     0.00   0.00   0.06
     3   1    -0.31   0.05  -0.20    -0.10  -0.16  -0.02    -0.03   0.46  -0.15
     4   1     0.00   0.00   0.31    -0.11   0.25   0.00     0.00   0.00  -0.28
     5   1     0.31  -0.05  -0.20    -0.10  -0.16   0.02     0.03  -0.46  -0.15
     6   1     0.50   0.00  -0.26    -0.50  -0.40   0.11    -0.11  -0.44  -0.12
     7   1    -0.50   0.00  -0.26    -0.50  -0.40  -0.11     0.11   0.44  -0.12
                      4                      5                      6
                     A'                     A'                     A"
 Frequencies --   1056.0236              1171.7675              1353.2028
 Red. masses --      3.3720                 1.3983                 1.3441
 Frc consts  --      2.2156                 1.1312                 1.4501
 IR Inten    --      8.1169                 7.1736                 0.2068
  Atom  AN      X      Y      Z        X      Y      Z        X      Y      Z
     1   7     0.00   0.29   0.00     0.10  -0.03   0.00     0.00   0.00   0.10
     2   6    -0.04  -0.34   0.00    -0.14   0.04   0.00     0.00   0.00  -0.14
     3   1     0.13  -0.10   0.02     0.23   0.41   0.08     0.12  -0.33   0.07
     4   1     0.12  -0.63   0.00     0.16  -0.60   0.00     0.00   0.00   0.30
     5   1     0.13  -0.10  -0.02     0.23   0.41  -0.08    -0.12   0.33   0.07
     6   1     0.08   0.40  -0.01    -0.18  -0.16   0.09    -0.06  -0.54  -0.10
     7   1     0.08   0.40   0.01    -0.18  -0.16  -0.09     0.06   0.54  -0.10
                      7                      8                      9
                     A'                     A'                     A"
 Frequencies --   1461.6186              1497.1760              1519.1119
 Red. masses --      1.1585                 1.0556                 1.0332
 Frc consts  --      1.4581                 1.3941                 1.4048
 IR Inten    --      2.2612                 7.4624                 3.4121
  Atom  AN      X      Y      Z        X      Y      Z        X      Y      Z
     1   7     0.00   0.01   0.00    -0.01   0.00   0.00     0.00   0.00  -0.02
     2   6    -0.03   0.11   0.00    -0.05  -0.04   0.00     0.00   0.00  -0.04
     3   1     0.08  -0.55   0.31     0.50   0.01   0.31     0.35   0.37   0.05
     4   1     0.19  -0.38   0.00    -0.24   0.48   0.00     0.00   0.00   0.68
     5   1     0.08  -0.55  -0.31     0.50   0.01  -0.31    -0.35  -0.37   0.05
     6   1     0.00  -0.03  -0.02     0.01   0.02   0.00     0.01   0.08   0.01
     7   1     0.00  -0.03   0.02     0.01   0.02   0.00    -0.01  -0.08   0.01
                     10                     11                     12
                     A'                     A'                     A'
 Frequencies --   1668.8100              2947.7715              3051.6846
 Red. masses --      1.0835                 1.0605                 1.0725
 Frc consts  --      1.7778                 5.4291                 5.8847
 IR Inten    --     22.9016               103.4314                41.5484
  Atom  AN      X      Y      Z        X      Y      Z        X      Y      Z
     1   7     0.03  -0.07   0.00     0.00   0.00   0.00     0.00   0.00   0.00
     2   6     0.02   0.01   0.00    -0.06  -0.04   0.00     0.07  -0.03   0.00
     3   1    -0.01  -0.06   0.01    -0.10   0.05   0.13    -0.33   0.22   0.57
     4   1     0.01   0.03   0.00     0.89   0.39   0.00    -0.18  -0.09   0.00
     5   1    -0.01  -0.06  -0.01    -0.10   0.05  -0.13    -0.33   0.22  -0.57
     6   1    -0.32   0.47   0.41     0.00   0.00  -0.01     0.01   0.00   0.01
     7   1    -0.32   0.47  -0.41     0.00   0.00   0.01     0.01   0.00  -0.01
                     13                     14                     15
                     A"                     A'                     A"
 Frequencies --   3086.9945              3487.9026              3562.2552
 Red. masses --      1.1029                 1.0491                 1.0929
 Frc consts  --      6.1926                 7.5199                 8.1712
 IR Inten    --     38.4976                 1.5351                 0.1044
  Atom  AN      X      Y      Z        X      Y      Z        X      Y      Z
     1   7     0.00   0.00   0.00    -0.04   0.04   0.00     0.00   0.00   0.08
     2   6     0.00   0.00   0.09     0.00   0.00   0.00     0.00   0.00   0.00
     3   1     0.36  -0.22  -0.56     0.01   0.00  -0.01     0.01  -0.01  -0.01
     4   1     0.00   0.00   0.02     0.01   0.00   0.00     0.00   0.00   0.00
     5   1    -0.36   0.22  -0.56     0.01   0.00   0.01    -0.01   0.01  -0.01
     6   1     0.01   0.00   0.01     0.31  -0.24   0.59    -0.35   0.24  -0.56
     7   1    -0.01   0.00   0.01     0.31  -0.24  -0.59     0.35  -0.24  -0.56

 -------------------
 - Thermochemistry -
 -------------------
 Temperature   298.150 Kelvin.  Pressure   1.00000 Atm.
 Atom     1 has atomic number  7 and mass  14.00307
 Atom     2 has atomic number  6 and mass  12.00000
 Atom     3 has atomic number  1 and mass   1.00783
 Atom     4 has atomic number  1 and mass   1.00783
 Atom     5 has atomic number  1 and mass   1.00783
 Atom     6 has atomic number  1 and mass   1.00783
 Atom     7 has atomic number  1 and mass   1.00783
 Molecular mass:    31.04220 amu.
 Principal axes and moments of inertia in atomic units:
                           1         2         3
     Eigenvalues --    17.45026  79.54000  82.70025
           X           -0.05840   0.00000   0.99829
           Y            0.99829   0.00000   0.05840
           Z            0.00000   1.00000   0.00000
 This molecule is an asymmetric top.
 Rotational symmetry number  1.
 Rotational temperatures (Kelvin)      4.96347     1.08893     1.04732
 Rotational constants (GHZ):         103.42203    22.68973    21.82268
 Zero-point vibrational energy     167583.4 (Joules/Mol)
                                   40.05339 (Kcal/Mol)
 Warning -- explicit consideration of   1 degrees of freedom as
           vibrations may cause significant error
 Vibrational temperatures:    459.63  1227.66  1411.02  1519.38  1685.91
          (Kelvin)           1946.95  2102.94  2154.10  2185.66  2401.04
                             4241.18  4390.69  4441.49  5018.31  5125.28
 
 Zero-point correction=                           0.063829 (Hartree/Particle)
 Thermal correction to Energy=                    0.067237
 Thermal correction to Enthalpy=                  0.068181
 Thermal correction to Gibbs Free Energy=         0.040919
 Sum of electronic and zero-point Energies=            -95.824615
 Sum of electronic and thermal Energies=               -95.821207
 Sum of electronic and thermal Enthalpies=             -95.820263
 Sum of electronic and thermal Free Energies=          -95.847524
 
                     E (Thermal)             CV                S
                      KCal/Mol        Cal/Mol-Kelvin    Cal/Mol-Kelvin
 Total                   42.192              9.505             57.378
 Electronic               0.000              0.000              0.000
 Translational            0.889              2.981             36.231
 Rotational               0.889              2.981             19.379
 Vibrational             40.415              3.543              1.767
 Vibration     1          0.705              1.636              1.313
                       Q            Log10(Q)             Ln(Q)
 Total Bot       0.150794D-18        -18.821615        -43.338370
 Total V=0       0.344895D+11         10.537687         24.263921
 Vib (Bot)       0.578373D-29        -29.237792        -67.322505
 Vib (Bot)    1  0.588637D+00         -0.230153         -0.529946
 Vib (V=0)       0.132285D+01          0.121509          0.279785
 Vib (V=0)    1  0.127233D+01          0.104600          0.240850
 Electronic      0.100000D+01          0.000000          0.000000
 Translational   0.679804D+07          6.832384         15.732145
 Rotational      0.383525D+04          3.583794          8.251990
 
                                                                 name
                                                             IR Spectrum
 
     3  3             3 3  2                                             1    111   1      1   1                                     
     5  4             0 0  9                                             6    544   3      1   0  9   8                  3           
     6  8             8 5  4                                             6    196   5      7   5  8   5                  1           
     2  8             7 2  8                                             9    972   3      2   6  1   3                  9           
 
     X  X             X X  X                                             X    XXX   X      X   X      X                  X           
                      X X  X                                             X                            X                  X           
                      X X  X                                             X                            X                  X           
                      X X  X                                                                          X                  X           
                      X X  X                                                                          X                  X           
                           X                                                                          X                              
                           X                                                                          X                              
                           X                                                                          X                              
                           X                                                                          X                              
                           X                                                                          X                              
                           X                                                                          X                              
                           X                                                                          X                              
                           X                                                                          X                              
                                                                                                      X                              
                                                                                                      X                              
                                                                                                      X                              
                                                                                                      X                              
                                                                                                      X                              
                                                                                                      X                              
                                                                                                      X                              
 
 Forces in standard orientation:
 -------------------------------------------------------------------
 Center     Atomic                   Forces (Hartrees/Bohr)
 Number     Number              X              Y              Z
 -------------------------------------------------------------------
      1        7          -0.000008708   -0.000087632    0.000000000
      2        6           0.000004900   -0.000007099    0.000000000
      3        1          -0.000013280    0.000000962    0.000024466
      4        1           0.000054264    0.000007745    0.000000000
      5        1          -0.000013280    0.000000962   -0.000024466
      6        1          -0.000011948    0.000042531    0.000059308
      7        1          -0.000011948    0.000042531   -0.000059308
 -------------------------------------------------------------------
 ***** Axes restored to original set *****
 Rotating derivatives, DoTrsp=F IDiff=-2 LEDeriv=   1060 LFDPrp=       0 LDFDPr=       0.
 -------------------------------------------------------------------
 Center     Atomic                   Forces (Hartrees/Bohr)
 Number     Number              X              Y              Z
 -------------------------------------------------------------------
      1        7          -0.000080623   -0.000017987    0.000030521
      2        6          -0.000008268    0.000001312   -0.000002082
      3        1           0.000005158    0.000014517    0.000023206
      4        1          -0.000009445    0.000028013   -0.000046159
      5        1           0.000004899   -0.000027336   -0.000002142
      6        1           0.000044452    0.000051469    0.000029051
      7        1           0.000043826   -0.000049988   -0.000032395
 -------------------------------------------------------------------
 Cartesian Forces:  Max     0.000080623 RMS     0.000033327
 Z-matrix is all fixed cartesians, so copy forces.
 Force constants in Cartesian coordinates: 
                1             2             3             4             5 
      1  0.534440D+00
      2 -0.396877D-01  0.549694D+00
      3  0.669545D-01  0.205974D+00  0.333414D+00
      4 -0.203304D+00 -0.888140D-02  0.157091D-01  0.484781D+00
      5 -0.340728D-01 -0.932252D-01 -0.121097D-01 -0.166471D-01  0.572792D+00
      6  0.573043D-01 -0.123663D-01 -0.809343D-01  0.285428D-01  0.259577D-01
      7 -0.222875D-01 -0.220980D-01 -0.223569D-01 -0.965965D-01 -0.533109D-01
      8 -0.385528D-02 -0.249496D-02 -0.258496D-02 -0.572524D-01 -0.111621D+00
      9  0.493036D-02  0.678070D-02  0.106258D-01 -0.877840D-01 -0.972549D-01
     10 -0.161415D-01 -0.193989D-01  0.322314D-01 -0.511865D-01 -0.787269D-02
     11 -0.664300D-02  0.129587D-02  0.378535D-02 -0.694616D-02 -0.113700D+00
     12  0.111692D-01  0.391529D-02 -0.303114D-02  0.114483D-01  0.999075D-01
     13 -0.219552D-01  0.302861D-01  0.934311D-02 -0.946857D-01  0.955152D-01
     14 -0.229614D-02  0.928202D-02  0.422747D-03  0.102746D+00 -0.257208D+00
     15  0.573273D-02 -0.908897D-02 -0.148349D-02  0.101395D-01 -0.195887D-01
     16 -0.134000D+00  0.141226D+00  0.170945D-01 -0.193397D-01  0.359212D-01
     17  0.154283D+00 -0.340526D+00 -0.650047D-01 -0.752489D-02  0.571567D-02
     18 -0.493050D-02 -0.194378D-01 -0.224206D-01  0.102859D-01 -0.746395D-02
     19 -0.136752D+00 -0.814459D-01 -0.118976D+00 -0.196690D-01 -0.195329D-01
     20 -0.677278D-01 -0.124025D+00 -0.130482D+00 -0.549423D-02 -0.275367D-02
     21 -0.141161D+00 -0.175777D+00 -0.236171D+00  0.116585D-01  0.105520D-01
                6             7             8             9            10 
      6  0.545259D+00
      7 -0.816657D-01  0.115579D+00
      8 -0.941357D-01  0.667062D-01  0.116736D+00
      9 -0.194645D+00  0.921107D-01  0.103936D+00  0.205719D+00
     10  0.129782D-01  0.205014D-02  0.806578D-02 -0.111746D-01  0.599118D-01
     11  0.998981D-01  0.170790D-02  0.918872D-02 -0.137410D-01  0.133714D-01
     12 -0.218322D+00  0.151083D-03  0.133255D-01 -0.210582D-01 -0.222009D-01
     13  0.945263D-02  0.768043D-02 -0.131978D-01 -0.263468D-03  0.202205D-02
     14 -0.227413D-01  0.615097D-02 -0.136510D-01 -0.746518D-03  0.600795D-02
     15 -0.509689D-01  0.113255D-01 -0.217134D-01 -0.198779D-02 -0.120865D-01
     16  0.349704D-02  0.682281D-03  0.226611D-04 -0.845404D-03  0.166656D-02
     17  0.600244D-02  0.511093D-03  0.343208D-03 -0.164639D-03 -0.102098D-02
     18 -0.459383D-02 -0.914954D-03  0.401504D-03  0.290095D-03 -0.448097D-03
     19 -0.301092D-01 -0.710817D-02 -0.489080D-03  0.302646D-02  0.167746D-02
     20 -0.261486D-02  0.332739D-03  0.149913D-02  0.119057D-02  0.847477D-03
     21  0.420477D-02  0.135036D-02  0.771379D-03  0.105618D-02  0.700586D-03
               11            12            13            14            15 
     11  0.117295D+00
     12 -0.114745D+00  0.237573D+00
     13 -0.935206D-03 -0.145005D-02  0.113381D+00
     14 -0.147834D-01 -0.125372D-02 -0.110976D+00  0.273983D+00
     15  0.259482D-01  0.294209D-02 -0.165827D-01  0.235473D-01  0.506700D-01
     16 -0.222827D-03  0.473116D-03 -0.712965D-02 -0.236819D-02  0.188245D-02
     17  0.105155D-02 -0.336238D-03 -0.126589D-02  0.199034D-02  0.522517D-03
     18 -0.153382D-02  0.253799D-03  0.381512D-03  0.961303D-03  0.586444D-03
     19 -0.332124D-03  0.409207D-03  0.687058D-03  0.735025D-03 -0.410819D-03
     20 -0.347588D-03 -0.813345D-03  0.573465D-03  0.386912D-03  0.373048D-03
     21  0.388126D-03  0.164204D-02 -0.880990D-03 -0.189766D-03  0.241614D-03
               16            17            18            19            20 
     16  0.148489D+00
     17 -0.156121D+00  0.351151D+00
     18 -0.189044D-01  0.553402D-01  0.328151D-01
     19  0.963219D-02  0.111392D-01  0.145306D-01  0.151532D+00
     20 -0.184575D-01 -0.197249D-01 -0.282674D-01  0.899258D-01  0.144965D+00
     21 -0.319727D-02  0.364045D-02 -0.693107D-02  0.131530D+00  0.160614D+00
               21 
     21  0.235957D+00
 Final forces over variables, Energy=-9.58884439D+01:
 -8.06228436D-05-8.26811134D-06 5.15759280D-06-9.44481909D-06
  4.89939158D-06 4.44523485D-05 4.38264411D-05-1.79873018D-05
  1.31186233D-06 1.45173680D-05 2.80134167D-05-2.73363818D-05
  5.14694973D-05-4.99884607D-05 3.05212644D-05-2.08188124D-06
  2.32059367D-05-4.61585911D-05-2.14206122D-06 2.90507928D-05
 -3.23954603D-05
 Leave Link  716 at Sat Feb 16 13:50:21 2019, MaxMem=   196608000 cpu:         2.9
 (Enter /cm/shared/c3ddb/gaussian/09.d01/g09/l103.exe)

 GradGradGradGradGradGradGradGradGradGradGradGradGradGradGradGradGradGrad
 Berny optimization.
 Search for a local minimum.
 Step number   1 out of a maximum of    2
 All quantities printed in internal units (Hartrees-Bohrs-Radians)
 Second derivative matrix not updated -- analytic derivatives used.
 ITU=  0
     Eigenvalues ---    0.00425   0.04052   0.04058   0.08364   0.09668
     Eigenvalues ---    0.10454   0.13834   0.14993   0.16419   0.30985
     Eigenvalues ---    0.54571   0.69821   0.71980   0.84464   0.93145
 Angle between quadratic step and forces=  39.83 degrees.
 ClnCor:  largest displacement from symmetrization is 1.19D-12 for atom     7.
 Linear search not attempted -- first point.
 ClnCor:  largest displacement from symmetrization is 5.35D-15 for atom     3.
 TrRot= -0.000050 -0.000020  0.000034 -0.000001 -0.000002 -0.000001
 Variable       Old X    -DE/DX   Delta X   Delta X   Delta X     New X
                                 (Linear)    (Quad)   (Total)
    X1        1.55764  -0.00008   0.00000  -0.00017  -0.00021   1.55742
    Y1        0.38964  -0.00002   0.00000  -0.00007  -0.00009   0.38955
    Z1       -0.65923   0.00003   0.00000   0.00012   0.00015  -0.65908
    X2       -1.07678  -0.00001   0.00000  -0.00005  -0.00010  -1.07689
    Y2       -0.04307   0.00000   0.00000  -0.00002  -0.00004  -0.04311
    Z2        0.08209   0.00000   0.00000   0.00003   0.00006   0.08215
    X3       -2.04997   0.00001   0.00000  -0.00007  -0.00012  -2.05010
    Y3       -1.06383   0.00001   0.00000   0.00007   0.00005  -1.06378
    Z3       -1.42748   0.00002   0.00000   0.00009   0.00012  -1.42736
    X4       -1.34883  -0.00001   0.00000  -0.00036  -0.00042  -1.34925
    Y4       -1.11113   0.00003   0.00000   0.00008   0.00006  -1.11107
    Z4        1.84840  -0.00005   0.00000  -0.00013  -0.00010   1.84831
    X5       -2.03245   0.00000   0.00000  -0.00008  -0.00012  -2.03258
    Y5        1.77633  -0.00003   0.00000  -0.00011  -0.00013   1.77620
    Z5        0.29262   0.00000   0.00000  -0.00002   0.00001   0.29263
    X6        2.46710   0.00004   0.00000   0.00054   0.00049   2.46759
    Y6       -1.28693   0.00005   0.00000   0.00039   0.00037  -1.28656
    Z6       -0.86337   0.00003   0.00000   0.00002   0.00006  -0.86332
    X7        2.48330   0.00004   0.00000   0.00054   0.00049   2.48379
    Y7        1.33900  -0.00005   0.00000  -0.00020  -0.00022   1.33877
    Z7        0.72697  -0.00003   0.00000  -0.00034  -0.00030   0.72667
         Item               Value     Threshold  Converged?
 Maximum Force            0.000081     0.000450     YES
 RMS     Force            0.000033     0.000300     YES
 Maximum Displacement     0.000494     0.001800     YES
 RMS     Displacement     0.000230     0.001200     YES
 Predicted change in Energy=-6.265107D-08
 Optimization completed.
    -- Stationary point found.
 GradGradGradGradGradGradGradGradGradGradGradGradGradGradGradGradGradGrad

 Leave Link  103 at Sat Feb 16 13:50:21 2019, MaxMem=   196608000 cpu:         0.2
 (Enter /cm/shared/c3ddb/gaussian/09.d01/g09/l9999.exe)

 Test job not archived.
 1\1\GINC-NODE028\Freq\RB3LYP\6-311G(2d,d,p)\C1H5N1\DUMINDA\16-Feb-2019
 \0\\#P b3lyp/cbsb7 freq iop(7/33=1) scf=xqc\\name\\0,1\N,0.8242670006,
 0.206191103,-0.3488519376\C,-0.5698100003,-0.0227940515,0.0434409688\H
 ,-1.084799,-0.562956,-0.755389\H,-0.7137700026,-0.5879864181,0.9781337
 468\H,-1.0755271178,0.9399920916,0.1548454524\H,1.305533,-0.681013,-0.
 456877\H,1.3141054953,0.7085662838,0.3846975996\\Version=AS64L-G09RevD
 .01\State=1-A'\HF=-95.8884439\RMSD=7.382e-09\RMSF=3.333e-05\ZeroPoint=
 0.0638291\Thermal=0.0672372\Dipole=0.0383935,-0.2799342,0.4618267\Dipo
 leDeriv=-0.5216685,-0.0863691,0.1459667,-0.0946157,-0.2931546,0.167815
 ,0.1595832,0.167731,-0.4706813,0.5172766,0.0794429,-0.1346029,0.028639
 3,0.2307617,-0.0831182,-0.0507177,-0.0836357,0.3192123,-0.0312016,-0.0
 515484,-0.0530446,-0.0867011,0.0079179,-0.07636,-0.0802945,-0.0916464,
 -0.0730533,-0.0820922,-0.0344412,0.0582239,-0.0653688,-0.0368771,0.145
 7772,0.1092905,0.1454622,-0.1902883,-0.0292311,0.0699896,0.0213925,0.1
 103407,-0.1262885,-0.023141,0.0400591,-0.0078017,0.0591827,0.0739436,0
 .0472307,0.0031873,0.0961324,0.0108673,-0.0448887,-0.0624886,0.0159594
 ,0.2752817,0.0729731,-0.0243046,-0.0411229,0.0115731,0.2067732,-0.0860
 843,-0.1154319,-0.1460688,0.0803462\Polar=23.0883669,0.2416365,20.3594
 322,-0.4207559,0.9739549,19.3469066\PG=CS [SG(C1H1N1),X(H4)]\NImag=0\\
 0.53444009,-0.03968769,0.54969353,0.06695451,0.20597370,0.33341433,-0.
 20330387,-0.00888140,0.01570911,0.48478126,-0.03407283,-0.09322521,-0.
 01210973,-0.01664713,0.57279204,0.05730433,-0.01236633,-0.08093430,0.0
 2854276,0.02595769,0.54525897,-0.02228749,-0.02209797,-0.02235692,-0.0
 9659647,-0.05331089,-0.08166571,0.11557928,-0.00385528,-0.00249496,-0.
 00258496,-0.05725239,-0.11162107,-0.09413574,0.06670615,0.11673600,0.0
 0493036,0.00678070,0.01062582,-0.08778399,-0.09725488,-0.19464472,0.09
 211069,0.10393579,0.20571856,-0.01614146,-0.01939895,0.03223143,-0.051
 18650,-0.00787269,0.01297819,0.00205014,0.00806578,-0.01117465,0.05991
 177,-0.00664300,0.00129587,0.00378535,-0.00694616,-0.11370015,0.099898
 10,0.00170790,0.00918872,-0.01374101,0.01337141,0.11729503,0.01116925,
 0.00391529,-0.00303114,0.01144833,0.09990754,-0.21832198,0.00015108,0.
 01332546,-0.02105816,-0.02220093,-0.11474499,0.23757336,-0.02195515,0.
 03028606,0.00934311,-0.09468575,0.09551523,0.00945263,0.00768043,-0.01
 319784,-0.00026347,0.00202205,-0.00093521,-0.00145005,0.11338101,-0.00
 229614,0.00928202,0.00042275,0.10274620,-0.25720762,-0.02274131,0.0061
 5097,-0.01365102,-0.00074652,0.00600795,-0.01478344,-0.00125372,-0.110
 97582,0.27398281,0.00573273,-0.00908897,-0.00148349,0.01013946,-0.0195
 8865,-0.05096890,0.01132546,-0.02171344,-0.00198779,-0.01208653,0.0259
 4824,0.00294209,-0.01658275,0.02354726,0.05067003,-0.13400029,0.141225
 87,0.01709445,-0.01933971,0.03592116,0.00349704,0.00068228,0.00002266,
 -0.00084540,0.00166656,-0.00022283,0.00047312,-0.00712965,-0.00236819,
 0.00188245,0.14848862,0.15428272,-0.34052643,-0.06500473,-0.00752489,0
 .00571567,0.00600244,0.00051109,0.00034321,-0.00016464,-0.00102098,0.0
 0105155,-0.00033624,-0.00126589,0.00199034,0.00052252,-0.15612121,0.35
 115058,-0.00493050,-0.01943783,-0.02242057,0.01028585,-0.00746395,-0.0
 0459383,-0.00091495,0.00040150,0.00029010,-0.00044810,-0.00153382,0.00
 025380,0.00038151,0.00096130,0.00058644,-0.01890438,0.05534020,0.03281
 513,-0.13675183,-0.08144593,-0.11897570,-0.01966896,-0.01953286,-0.030
 10924,-0.00710817,-0.00048908,0.00302646,0.00167746,-0.00033212,0.0004
 0921,0.00068706,0.00073502,-0.00041082,0.00963219,0.01113916,0.0145305
 7,0.15153225,-0.06772779,-0.12402482,-0.13048239,-0.00549423,-0.002753
 67,-0.00261486,0.00033274,0.00149913,0.00119057,0.00084748,-0.00034759
 ,-0.00081334,0.00057347,0.00038691,0.00037305,-0.01845747,-0.01972493,
 -0.02826741,0.08992581,0.14496496,-0.14116069,-0.17577655,-0.23617065,
 0.01165848,0.01055198,0.00420477,0.00135036,0.00077138,0.00105618,0.00
 070059,0.00038813,0.00164204,-0.00088099,-0.00018977,0.00024161,-0.003
 19727,0.00364045,-0.00693107,0.13152953,0.16061438,0.23595711\\0.00008
 062,0.00001799,-0.00003052,0.00000827,-0.00000131,0.00000208,-0.000005
 16,-0.00001452,-0.00002321,0.00000944,-0.00002801,0.00004616,-0.000004
 90,0.00002734,0.00000214,-0.00004445,-0.00005147,-0.00002905,-0.000043
 83,0.00004999,0.00003240\\\@



 WE LOSE BECAUSE WE WIN

 GAMBLERS,

 RECOLLECTING WHICH,

 TOSS THEIR DICE AGAIN....


                          EMILY DICKINSON  BOLTS OF MELODY NO. 533
 Job cpu time:       0 days  0 hours  2 minutes 22.1 seconds.
 File lengths (MBytes):  RWF=      5 Int=      0 D2E=      0 Chk=      1 Scr=      1
 Normal termination of Gaussian 09 at Sat Feb 16 13:50:21 2019.
