 Entering Gaussian System, Link 0=g09
 Initial command:
 /cm/shared/c3ddb/gaussian/09.d01/g09/l1.exe "/scratch/users/duminda/g09/a1676-7322566/Gau-7002.inp" -scrdir="/scratch/users/duminda/g09/a1676-7322566/"
 Entering Link 1 = /cm/shared/c3ddb/gaussian/09.d01/g09/l1.exe PID=      7003.
  
 Copyright (c) 1988,1990,1992,1993,1995,1998,2003,2009,2013,
            Gaussian, Inc.  All Rights Reserved.
  
 This is part of the Gaussian(R) 09 program.  It is based on
 the Gaussian(R) 03 system (copyright 2003, Gaussian, Inc.),
 the Gaussian(R) 98 system (copyright 1998, Gaussian, Inc.),
 the Gaussian(R) 94 system (copyright 1995, Gaussian, Inc.),
 the Gaussian 92(TM) system (copyright 1992, Gaussian, Inc.),
 the Gaussian 90(TM) system (copyright 1990, Gaussian, Inc.),
 the Gaussian 88(TM) system (copyright 1988, Gaussian, Inc.),
 the Gaussian 86(TM) system (copyright 1986, Carnegie Mellon
 University), and the Gaussian 82(TM) system (copyright 1983,
 Carnegie Mellon University). Gaussian is a federally registered
 trademark of Gaussian, Inc.
  
 This software contains proprietary and confidential information,
 including trade secrets, belonging to Gaussian, Inc.
  
 This software is provided under written license and may be
 used, copied, transmitted, or stored only in accord with that
 written license.
  
 The following legend is applicable only to US Government
 contracts under FAR:
  
                    RESTRICTED RIGHTS LEGEND
  
 Use, reproduction and disclosure by the US Government is
 subject to restrictions as set forth in subparagraphs (a)
 and (c) of the Commercial Computer Software - Restricted
 Rights clause in FAR 52.227-19.
  
 Gaussian, Inc.
 340 Quinnipiac St., Bldg. 40, Wallingford CT 06492
  
  
 ---------------------------------------------------------------
 Warning -- This program may not be used in any manner that
 competes with the business of Gaussian, Inc. or will provide
 assistance to any competitor of Gaussian, Inc.  The licensee
 of this program is prohibited from giving any competitor of
 Gaussian, Inc. access to this program.  By using this program,
 the user acknowledges that Gaussian, Inc. is engaged in the
 business of creating and licensing software in the field of
 computational chemistry and represents and warrants to the
 licensee that it is not a competitor of Gaussian, Inc. and that
 it will not use this program in any manner prohibited above.
 ---------------------------------------------------------------
  

 Cite this work as:
 Gaussian 09, Revision D.01,
 M. J. Frisch, G. W. Trucks, H. B. Schlegel, G. E. Scuseria, 
 M. A. Robb, J. R. Cheeseman, G. Scalmani, V. Barone, B. Mennucci, 
 G. A. Petersson, H. Nakatsuji, M. Caricato, X. Li, H. P. Hratchian, 
 A. F. Izmaylov, J. Bloino, G. Zheng, J. L. Sonnenberg, M. Hada, 
 M. Ehara, K. Toyota, R. Fukuda, J. Hasegawa, M. Ishida, T. Nakajima, 
 Y. Honda, O. Kitao, H. Nakai, T. Vreven, J. A. Montgomery, Jr., 
 J. E. Peralta, F. Ogliaro, M. Bearpark, J. J. Heyd, E. Brothers, 
 K. N. Kudin, V. N. Staroverov, T. Keith, R. Kobayashi, J. Normand, 
 K. Raghavachari, A. Rendell, J. C. Burant, S. S. Iyengar, J. Tomasi, 
 M. Cossi, N. Rega, J. M. Millam, M. Klene, J. E. Knox, J. B. Cross, 
 V. Bakken, C. Adamo, J. Jaramillo, R. Gomperts, R. E. Stratmann, 
 O. Yazyev, A. J. Austin, R. Cammi, C. Pomelli, J. W. Ochterski, 
 R. L. Martin, K. Morokuma, V. G. Zakrzewski, G. A. Voth, 
 P. Salvador, J. J. Dannenberg, S. Dapprich, A. D. Daniels, 
 O. Farkas, J. B. Foresman, J. V. Ortiz, J. Cioslowski, 
 and D. J. Fox, Gaussian, Inc., Wallingford CT, 2013.
 
 ******************************************
 Gaussian 09:  AS64L-G09RevD.01 24-Apr-2013
                16-Feb-2019 
 ******************************************
 %chk=check.chk
 %mem=1500mb
 %nproc=8
 Will use up to    8 processors via shared memory.
 ---------------------------------
 #P opt=calcfc ub97d/6-31g scf=xqc
 ---------------------------------
 1/10=4,14=-1,18=20,19=15,26=3,38=1/1,3;
 2/9=110,12=2,17=6,18=5,40=1/2;
 3/5=1,6=6,11=2,16=1,25=1,30=1,71=2,74=-42,116=2,140=1/1,2,3;
 4//1;
 5/5=2,8=3,13=1,38=5/2,8;
 8/6=4,10=90,11=11/1;
 11/6=1,8=1,9=11,15=111,16=1/1,2,10;
 10/6=1,13=1/2;
 6/7=2,8=2,9=2,10=2,28=1/1;
 7/10=1,18=20,25=1/1,2,3,16;
 1/10=4,14=-1,18=20,19=15,26=3/3(2);
 2/9=110/2;
 99//99;
 2/9=110/2;
 3/5=1,6=6,11=2,16=1,25=1,30=1,71=1,74=-42,116=2/1,2,3;
 4/5=5,16=3,69=1/1;
 5/5=2,8=3,13=1,38=5/2,8;
 7//1,2,3,16;
 1/14=-1,18=20,19=15,26=3/3(-5);
 2/9=110/2;
 6/7=2,8=2,9=2,10=2,19=2,28=1/1;
 99/9=1/99;
 Leave Link    1 at Sat Feb 16 13:46:57 2019, MaxMem=   196608000 cpu:         0.8
 (Enter /cm/shared/c3ddb/gaussian/09.d01/g09/l101.exe)
 ----
 name
 ----
 Symbolic Z-matrix:
 Charge =  0 Multiplicity = 2
 O                     1.18215   0.07715  -0.03574 
 C                     3.17218  -1.18939  -0.04083 
 C                     2.42834  -0.07463  -0.03635 
 H                     4.25276  -1.14003  -0.04063 
 H                     2.69391  -2.1624   -0.04473 
 H                     3.02957   0.83707  -0.03269 
 
 NAtoms=      6 NQM=        6 NQMF=       0 NMMI=      0 NMMIF=      0
                NMic=       0 NMicF=      0.
                    Isotopes and Nuclear Properties:
 (Nuclear quadrupole moments (NQMom) in fm**2, nuclear magnetic moments (NMagM)
  in nuclear magnetons)

  Atom         1           2           3           4           5           6
 IAtWgt=          16          12          12           1           1           1
 AtmWgt=  15.9949146  12.0000000  12.0000000   1.0078250   1.0078250   1.0078250
 NucSpn=           0           0           0           1           1           1
 AtZEff=   0.0000000   0.0000000   0.0000000   0.0000000   0.0000000   0.0000000
 NQMom=    0.0000000   0.0000000   0.0000000   0.0000000   0.0000000   0.0000000
 NMagM=    0.0000000   0.0000000   0.0000000   2.7928460   2.7928460   2.7928460
 AtZNuc=   8.0000000   6.0000000   6.0000000   1.0000000   1.0000000   1.0000000
 Leave Link  101 at Sat Feb 16 13:46:57 2019, MaxMem=   196608000 cpu:         0.7
 (Enter /cm/shared/c3ddb/gaussian/09.d01/g09/l103.exe)

 GradGradGradGradGradGradGradGradGradGradGradGradGradGradGradGradGradGrad
 Berny optimization.
 Initialization pass.
                           ----------------------------
                           !    Initial Parameters    !
                           ! (Angstroms and Degrees)  !
 --------------------------                            --------------------------
 ! Name  Definition              Value          Derivative Info.                !
 --------------------------------------------------------------------------------
 ! R1    R(1,3)                  1.2554         calculate D2E/DX2 analytically  !
 ! R2    R(2,3)                  1.3401         calculate D2E/DX2 analytically  !
 ! R3    R(2,4)                  1.0817         calculate D2E/DX2 analytically  !
 ! R4    R(2,5)                  1.0842         calculate D2E/DX2 analytically  !
 ! R5    R(3,6)                  1.0921         calculate D2E/DX2 analytically  !
 ! A1    A(3,2,4)              121.098          calculate D2E/DX2 analytically  !
 ! A2    A(3,2,5)              120.1112         calculate D2E/DX2 analytically  !
 ! A3    A(4,2,5)              118.7909         calculate D2E/DX2 analytically  !
 ! A4    A(1,3,2)              130.6578         calculate D2E/DX2 analytically  !
 ! A5    A(1,3,6)              116.4581         calculate D2E/DX2 analytically  !
 ! A6    A(2,3,6)              112.884          calculate D2E/DX2 analytically  !
 ! D1    D(4,2,3,1)            180.0            calculate D2E/DX2 analytically  !
 ! D2    D(4,2,3,6)              0.0            calculate D2E/DX2 analytically  !
 ! D3    D(5,2,3,1)              0.0            calculate D2E/DX2 analytically  !
 ! D4    D(5,2,3,6)            180.0            calculate D2E/DX2 analytically  !
 --------------------------------------------------------------------------------
 Trust Radius=3.00D-01 FncErr=1.00D-07 GrdErr=1.00D-06
 Number of steps in this run=     25 maximum allowed number of steps=    100.
 GradGradGradGradGradGradGradGradGradGradGradGradGradGradGradGradGradGrad

 Leave Link  103 at Sat Feb 16 13:46:57 2019, MaxMem=   196608000 cpu:         0.1
 (Enter /cm/shared/c3ddb/gaussian/09.d01/g09/l202.exe)
                          Input orientation:                          
 ---------------------------------------------------------------------
 Center     Atomic      Atomic             Coordinates (Angstroms)
 Number     Number       Type             X           Y           Z
 ---------------------------------------------------------------------
      1          8           0        1.182152    0.077152   -0.035740
      2          6           0        3.172180   -1.189393   -0.040826
      3          6           0        2.428345   -0.074633   -0.036349
      4          1           0        4.252764   -1.140033   -0.040628
      5          1           0        2.693915   -2.162402   -0.044733
      6          1           0        3.029565    0.837070   -0.032688
 ---------------------------------------------------------------------
                    Distance matrix (angstroms):
                    1          2          3          4          5
     1  O    0.000000
     2  C    2.358893   0.000000
     3  C    1.255403   1.340150   0.000000
     4  H    3.303063   1.081710   2.112724   0.000000
     5  H    2.702056   1.084204   2.104608   1.864206   0.000000
     6  H    1.997604   2.031492   1.092100   2.324912   3.018217
                    6
     6  H    0.000000
 Stoichiometry    C2H3O(2)
 Framework group  CS[SG(C2H3O)]
 Deg. of freedom     9
 Full point group                 CS      NOp   2
 Largest Abelian subgroup         CS      NOp   2
 Largest concise Abelian subgroup C1      NOp   1
                         Standard orientation:                         
 ---------------------------------------------------------------------
 Center     Atomic      Atomic             Coordinates (Angstroms)
 Number     Number       Type             X           Y           Z
 ---------------------------------------------------------------------
      1          8           0       -1.222725    0.072535    0.000000
      2          6           0        1.080885   -0.435165    0.000000
      3          6           0        0.000000    0.357104    0.000000
      4          1           0        2.079086   -0.018401    0.000000
      5          1           0        0.965116   -1.513171    0.000000
      6          1           0        0.252289    1.419663    0.000000
 ---------------------------------------------------------------------
 Rotational constants (GHZ):     79.0944729     11.2604768      9.8571410
 Leave Link  202 at Sat Feb 16 13:46:57 2019, MaxMem=   196608000 cpu:         0.4
 (Enter /cm/shared/c3ddb/gaussian/09.d01/g09/l301.exe)
 Standard basis: 6-31G (6D, 7F)
 Ernie: Thresh=  0.10000D-02 Tol=  0.10000D-05 Strict=F.
 There are    27 symmetry adapted cartesian basis functions of A'  symmetry.
 There are     6 symmetry adapted cartesian basis functions of A"  symmetry.
 There are    27 symmetry adapted basis functions of A'  symmetry.
 There are     6 symmetry adapted basis functions of A"  symmetry.
    33 basis functions,    78 primitive gaussians,    33 cartesian basis functions
    12 alpha electrons       11 beta electrons
       nuclear repulsion energy        64.2158735581 Hartrees.
 IExCor= 3630 DFT=T Ex+Corr=B97D ExCW=0 ScaHFX=  0.000000
 ScaDFX=  1.000000  1.000000  1.000000  1.000000 ScalE2=  1.000000  1.000000
 IRadAn=      0 IRanWt=     -1 IRanGd=            0 ICorTp=0 IEmpDi=121
 NAtoms=    6 NActive=    6 NUniq=    6 SFac= 1.00D+00 NAtFMM=   60 NAOKFM=F Big=F
 Integral buffers will be    131072 words long.
 Raffenetti 2 integral format.
 Two-electron integral symmetry is turned on.
 R6Disp:  Grimme-D2 Dispersion energy=       -0.0019628768 Hartrees.
 Nuclear repulsion after empirical dispersion term =       64.2139106814 Hartrees.
 Leave Link  301 at Sat Feb 16 13:46:58 2019, MaxMem=   196608000 cpu:         1.0
 (Enter /cm/shared/c3ddb/gaussian/09.d01/g09/l302.exe)
 NPDir=0 NMtPBC=     1 NCelOv=     1 NCel=       1 NClECP=     1 NCelD=      1
         NCelK=      1 NCelE2=     1 NClLst=     1 CellRange=     0.0.
 One-electron integrals computed using PRISM.
 NBasis=    33 RedAO= T EigKep=  1.02D-02  NBF=    27     6
 NBsUse=    33 1.00D-06 EigRej= -1.00D+00 NBFU=    27     6
 Precomputing XC quadrature grid using
 IXCGrd= 4 IRadAn=           0 IRanWt=          -1 IRanGd=           0 AccXCQ= 0.00D+00.
 Generated NRdTot=       0 NPtTot=           0 NUsed=           0 NTot=          32
 NSgBfM=    33    33    33    33    33 MxSgAt=     6 MxSgA2=     6.
 Leave Link  302 at Sat Feb 16 13:46:58 2019, MaxMem=   196608000 cpu:         2.6
 (Enter /cm/shared/c3ddb/gaussian/09.d01/g09/l303.exe)
 DipDrv:  MaxL=1.
 Leave Link  303 at Sat Feb 16 13:46:58 2019, MaxMem=   196608000 cpu:         0.9
 (Enter /cm/shared/c3ddb/gaussian/09.d01/g09/l401.exe)
 ExpMin= 1.61D-01 ExpMax= 5.48D+03 ExpMxC= 8.25D+02 IAcc=1 IRadAn=         1 AccDes= 0.00D+00
 Harris functional with IExCor= 3630 and IRadAn=       1 diagonalized for initial guess.
 HarFok:  IExCor= 3630 AccDes= 0.00D+00 IRadAn=         1 IDoV= 1 UseB2=F ITyADJ=14
 ICtDFT=  3500011 ScaDFX=  1.000000  1.000000  1.000000  1.000000
 FoFCou: FMM=F IPFlag=           0 FMFlag=      100000 FMFlg1=           0
         NFxFlg=           0 DoJE=T BraDBF=F KetDBF=T FulRan=T
         wScrn=  0.000000 ICntrl=     500 IOpCl=  0 I1Cent=   200000004 NGrid=           0
         NMat0=    1 NMatS0=      1 NMatT0=    0 NMatD0=    1 NMtDS0=    0 NMtDT0=    0
 Petite list used in FoFCou.
 Harris En= -153.051188192239    
 JPrj=0 DoOrth=F DoCkMO=F.
 Initial guess orbital symmetries:
 Alpha Orbitals:
       Occupied  (A') (A') (A') (A') (A') (A') (A') (A') (A') (A")
                 (A') (A")
       Virtual   (A") (A') (A') (A') (A') (A') (A") (A') (A") (A')
                 (A') (A') (A') (A') (A') (A') (A") (A') (A') (A')
                 (A')
 Beta  Orbitals:
       Occupied  (A') (A') (A') (A') (A') (A') (A') (A') (A') (A")
                 (A')
       Virtual   (A") (A") (A') (A') (A') (A') (A') (A") (A') (A")
                 (A') (A') (A') (A') (A') (A') (A') (A") (A') (A')
                 (A') (A')
 The electronic state of the initial guess is 2-A".
 Initial guess <Sx>= 0.0000 <Sy>= 0.0000 <Sz>= 0.5000 <S**2>= 0.7500 S= 0.5000
 Leave Link  401 at Sat Feb 16 13:46:59 2019, MaxMem=   196608000 cpu:         4.7
 (Enter /cm/shared/c3ddb/gaussian/09.d01/g09/l502.exe)
 UHF open shell SCF:
 Using DIIS extrapolation, IDIIS=  1040.
 Integral symmetry usage will be decided dynamically.
 Keep J ints in memory in symmetry-blocked form, NReq=1029148.
 IVT=        9750 IEndB=        9750 NGot=   196608000 MDV=   196503697
 LenX=   196503697 LenY=   196502167
 Requested convergence on RMS density matrix=1.00D-08 within  64 cycles.
 Requested convergence on MAX density matrix=1.00D-06.
 Requested convergence on             energy=1.00D-06.
 No special actions if energy rises.
 FoFCou: FMM=F IPFlag=           0 FMFlag=           0 FMFlg1=           0
         NFxFlg=           0 DoJE=F BraDBF=F KetDBF=F FulRan=T
         wScrn=  0.000000 ICntrl=     600 IOpCl=  0 I1Cent=           0 NGrid=           0
         NMat0=    1 NMatS0=    561 NMatT0=    0 NMatD0=    1 NMtDS0=    0 NMtDT0=    0
 Petite list used in FoFCou.
 Integral accuracy reduced to 1.0D-05 until final iterations.

 Cycle   1  Pass 0  IDiag  1:
 E= -152.952629272237    
 DIIS: error= 4.14D-02 at cycle   1 NSaved=   1.
 NSaved= 1 IEnMin= 1 EnMin= -152.952629272237     IErMin= 1 ErrMin= 4.14D-02
 ErrMax= 4.14D-02  0.00D+00 EMaxC= 1.00D-01 BMatC= 2.63D-01 BMatP= 2.63D-01
 IDIUse=3 WtCom= 5.86D-01 WtEn= 4.14D-01
 Coeff-Com:  0.100D+01
 Coeff-En:   0.100D+01
 Coeff:      0.100D+01
 Gap=     0.107 Goal=   None    Shift=    0.000
 Gap=     0.042 Goal=   None    Shift=    0.000
 GapD=    0.042 DampG=0.250 DampE=0.500 DampFc=0.2500 IDamp=-1.
 Damping current iteration by 2.50D-01
 RMSDP=3.94D-02 MaxDP=4.73D-01              OVMax= 3.50D-01

 Cycle   2  Pass 0  IDiag  1:
 E= -152.958293822254     Delta-E=       -0.005664550018 Rises=F Damp=T
 DIIS: error= 2.02D-02 at cycle   2 NSaved=   2.
 NSaved= 2 IEnMin= 2 EnMin= -152.958293822254     IErMin= 2 ErrMin= 2.02D-02
 ErrMax= 2.02D-02  0.00D+00 EMaxC= 1.00D-01 BMatC= 5.57D-02 BMatP= 2.63D-01
 IDIUse=3 WtCom= 7.98D-01 WtEn= 2.02D-01
 Coeff-Com:  0.843D-01 0.916D+00
 Coeff-En:   0.446D+00 0.554D+00
 Coeff:      0.158D+00 0.842D+00
 Gap=     0.179 Goal=   None    Shift=    0.000
 Gap=     0.049 Goal=   None    Shift=    0.000
 RMSDP=1.20D-02 MaxDP=9.55D-02 DE=-5.66D-03 OVMax= 4.19D-01

 Cycle   3  Pass 0  IDiag  1:
 E= -152.977500852683     Delta-E=       -0.019207030429 Rises=F Damp=F
 DIIS: error= 4.31D-02 at cycle   3 NSaved=   3.
 NSaved= 3 IEnMin= 3 EnMin= -152.977500852683     IErMin= 2 ErrMin= 2.02D-02
 ErrMax= 4.31D-02  0.00D+00 EMaxC= 1.00D-01 BMatC= 1.43D-01 BMatP= 5.57D-02
 IDIUse=2 WtCom= 0.00D+00 WtEn= 1.00D+00
 EnCoef did     2 forward-backward iterations
 Coeff-En:   0.198D-01 0.364D+00 0.617D+00
 Coeff:      0.198D-01 0.364D+00 0.617D+00
 Gap=     0.171 Goal=   None    Shift=    0.000
 Gap=     0.009 Goal=   None    Shift=    0.000
 RMSDP=2.68D-02 MaxDP=3.76D-01 DE=-1.92D-02 OVMax= 2.37D-01

 Cycle   4  Pass 0  IDiag  1:
 E= -152.781458065133     Delta-E=        0.196042787550 Rises=F Damp=F
 DIIS: error= 1.23D-01 at cycle   4 NSaved=   4.
 NSaved= 4 IEnMin= 3 EnMin= -152.977500852683     IErMin= 2 ErrMin= 2.02D-02
 ErrMax= 1.23D-01  0.00D+00 EMaxC= 1.00D-01 BMatC= 7.93D-01 BMatP= 5.57D-02
 IDIUse=2 WtCom= 0.00D+00 WtEn= 1.00D+00
 EnCoef did     3 forward-backward iterations
 Coeff-En:   0.925D-01 0.000D+00 0.680D+00 0.227D+00
 Coeff:      0.925D-01 0.000D+00 0.680D+00 0.227D+00
 Gap=     0.210 Goal=   None    Shift=    0.000
 Gap=     0.011 Goal=   None    Shift=    0.000
 RMSDP=2.61D-02 MaxDP=3.73D-01 DE= 1.96D-01 OVMax= 1.53D-01

 Cycle   5  Pass 0  IDiag  1:
 E= -153.018096960550     Delta-E=       -0.236638895418 Rises=F Damp=F
 DIIS: error= 9.40D-03 at cycle   5 NSaved=   5.
 NSaved= 5 IEnMin= 5 EnMin= -153.018096960550     IErMin= 5 ErrMin= 9.40D-03
 ErrMax= 9.40D-03  0.00D+00 EMaxC= 1.00D-01 BMatC= 1.08D-02 BMatP= 5.57D-02
 IDIUse=3 WtCom= 9.06D-01 WtEn= 9.40D-02
 Coeff-Com: -0.509D-01 0.808D-01 0.240D+00 0.893D-02 0.722D+00
 Coeff-En:   0.000D+00 0.000D+00 0.231D-01 0.000D+00 0.977D+00
 Coeff:     -0.461D-01 0.732D-01 0.219D+00 0.809D-02 0.746D+00
 Gap=     0.205 Goal=   None    Shift=    0.000
 Gap=     0.023 Goal=   None    Shift=    0.000
 RMSDP=2.37D-03 MaxDP=1.85D-02 DE=-2.37D-01 OVMax= 2.59D-02

 Cycle   6  Pass 0  IDiag  1:
 E= -153.020921446797     Delta-E=       -0.002824486247 Rises=F Damp=F
 DIIS: error= 5.51D-03 at cycle   6 NSaved=   6.
 NSaved= 6 IEnMin= 6 EnMin= -153.020921446797     IErMin= 6 ErrMin= 5.51D-03
 ErrMax= 5.51D-03  0.00D+00 EMaxC= 1.00D-01 BMatC= 1.77D-03 BMatP= 1.08D-02
 IDIUse=3 WtCom= 9.45D-01 WtEn= 5.51D-02
 Coeff-Com: -0.521D-01 0.837D-01 0.104D+00-0.496D-02 0.371D+00 0.499D+00
 Coeff-En:   0.000D+00 0.000D+00 0.000D+00 0.000D+00 0.000D+00 0.100D+01
 Coeff:     -0.492D-01 0.790D-01 0.982D-01-0.469D-02 0.350D+00 0.526D+00
 Gap=     0.202 Goal=   None    Shift=    0.000
 Gap=     0.025 Goal=   None    Shift=    0.000
 RMSDP=7.18D-04 MaxDP=8.89D-03 DE=-2.82D-03 OVMax= 1.40D-02

 Cycle   7  Pass 0  IDiag  1:
 E= -153.021360019818     Delta-E=       -0.000438573021 Rises=F Damp=F
 DIIS: error= 1.65D-03 at cycle   7 NSaved=   7.
 NSaved= 7 IEnMin= 7 EnMin= -153.021360019818     IErMin= 7 ErrMin= 1.65D-03
 ErrMax= 1.65D-03  0.00D+00 EMaxC= 1.00D-01 BMatC= 1.11D-04 BMatP= 1.77D-03
 IDIUse=3 WtCom= 9.84D-01 WtEn= 1.65D-02
 Coeff-Com: -0.184D-02-0.739D-02-0.333D-01 0.191D-03-0.657D-01 0.171D+00
 Coeff-Com:  0.937D+00
 Coeff-En:   0.000D+00 0.000D+00 0.000D+00 0.000D+00 0.000D+00 0.000D+00
 Coeff-En:   0.100D+01
 Coeff:     -0.181D-02-0.727D-02-0.328D-01 0.188D-03-0.646D-01 0.168D+00
 Coeff:      0.938D+00
 Gap=     0.203 Goal=   None    Shift=    0.000
 Gap=     0.026 Goal=   None    Shift=    0.000
 RMSDP=2.76D-04 MaxDP=4.04D-03 DE=-4.39D-04 OVMax= 6.25D-03

 Cycle   8  Pass 0  IDiag  1:
 E= -153.021413534287     Delta-E=       -0.000053514469 Rises=F Damp=F
 DIIS: error= 1.95D-04 at cycle   8 NSaved=   8.
 NSaved= 8 IEnMin= 8 EnMin= -153.021413534287     IErMin= 8 ErrMin= 1.95D-04
 ErrMax= 1.95D-04  0.00D+00 EMaxC= 1.00D-01 BMatC= 3.79D-06 BMatP= 1.11D-04
 IDIUse=3 WtCom= 9.98D-01 WtEn= 1.95D-03
 Coeff-Com:  0.501D-02-0.993D-02-0.152D-01 0.297D-03-0.459D-01-0.325D-01
 Coeff-Com:  0.114D+00 0.984D+00
 Coeff-En:   0.000D+00 0.000D+00 0.000D+00 0.000D+00 0.000D+00 0.000D+00
 Coeff-En:   0.000D+00 0.100D+01
 Coeff:      0.500D-02-0.991D-02-0.151D-01 0.296D-03-0.458D-01-0.325D-01
 Coeff:      0.114D+00 0.984D+00
 Gap=     0.203 Goal=   None    Shift=    0.000
 Gap=     0.026 Goal=   None    Shift=    0.000
 RMSDP=9.00D-05 MaxDP=1.06D-03 DE=-5.35D-05 OVMax= 2.03D-03

 Cycle   9  Pass 0  IDiag  1:
 E= -153.021415626149     Delta-E=       -0.000002091862 Rises=F Damp=F
 DIIS: error= 2.31D-04 at cycle   9 NSaved=   9.
 NSaved= 9 IEnMin= 9 EnMin= -153.021415626149     IErMin= 8 ErrMin= 1.95D-04
 ErrMax= 2.31D-04  0.00D+00 EMaxC= 1.00D-01 BMatC= 2.70D-06 BMatP= 3.79D-06
 IDIUse=3 WtCom= 9.98D-01 WtEn= 1.95D-03
 Coeff-Com:  0.241D-02-0.290D-02 0.480D-02 0.162D-03 0.708D-02-0.148D-01
 Coeff-Com: -0.634D-01 0.515D-01 0.102D+01
 Coeff-En:   0.000D+00 0.000D+00 0.000D+00 0.000D+00 0.000D+00 0.000D+00
 Coeff-En:   0.000D+00 0.000D+00 0.100D+01
 Coeff:      0.241D-02-0.290D-02 0.479D-02 0.162D-03 0.707D-02-0.148D-01
 Coeff:     -0.632D-01 0.514D-01 0.102D+01
 Gap=     0.203 Goal=   None    Shift=    0.000
 Gap=     0.026 Goal=   None    Shift=    0.000
 RMSDP=3.23D-05 MaxDP=4.31D-04 DE=-2.09D-06 OVMax= 4.71D-04

 Cycle  10  Pass 0  IDiag  1:
 E= -153.021416335409     Delta-E=       -0.000000709260 Rises=F Damp=F
 DIIS: error= 7.48D-05 at cycle  10 NSaved=  10.
 NSaved=10 IEnMin=10 EnMin= -153.021416335409     IErMin=10 ErrMin= 7.48D-05
 ErrMax= 7.48D-05  0.00D+00 EMaxC= 1.00D-01 BMatC= 3.02D-07 BMatP= 2.70D-06
 IDIUse=1 WtCom= 1.00D+00 WtEn= 0.00D+00
 Coeff-Com:  0.684D-03-0.908D-03 0.106D-02 0.922D-04 0.175D-02 0.150D-02
 Coeff-Com: -0.441D-03-0.351D-01-0.223D-01 0.105D+01
 Coeff:      0.684D-03-0.908D-03 0.106D-02 0.922D-04 0.175D-02 0.150D-02
 Coeff:     -0.441D-03-0.351D-01-0.223D-01 0.105D+01
 Gap=     0.203 Goal=   None    Shift=    0.000
 Gap=     0.026 Goal=   None    Shift=    0.000
 RMSDP=1.28D-05 MaxDP=1.54D-04 DE=-7.09D-07 OVMax= 1.93D-04

 Cycle  11  Pass 0  IDiag  1:
 E= -153.021416421045     Delta-E=       -0.000000085636 Rises=F Damp=F
 DIIS: error= 3.06D-06 at cycle  11 NSaved=  11.
 NSaved=11 IEnMin=11 EnMin= -153.021416421045     IErMin=11 ErrMin= 3.06D-06
 ErrMax= 3.06D-06  0.00D+00 EMaxC= 1.00D-01 BMatC= 1.88D-09 BMatP= 3.02D-07
 IDIUse=1 WtCom= 1.00D+00 WtEn= 0.00D+00
 Coeff-Com: -0.293D-04 0.428D-04-0.154D-03-0.268D-05-0.338D-03 0.114D-02
 Coeff-Com:  0.548D-02-0.367D-02-0.777D-01 0.181D+00 0.894D+00
 Coeff:     -0.293D-04 0.428D-04-0.154D-03-0.268D-05-0.338D-03 0.114D-02
 Coeff:      0.548D-02-0.367D-02-0.777D-01 0.181D+00 0.894D+00
 Gap=     0.203 Goal=   None    Shift=    0.000
 Gap=     0.026 Goal=   None    Shift=    0.000
 RMSDP=1.46D-06 MaxDP=1.45D-05 DE=-8.56D-08 OVMax= 1.55D-05

 Initial convergence to 1.0D-05 achieved.  Increase integral accuracy.
 Cycle  12  Pass 1  IDiag  1:
 E= -153.021393118210     Delta-E=        0.000023302835 Rises=F Damp=F
 DIIS: error= 1.79D-05 at cycle   1 NSaved=   1.
 NSaved= 1 IEnMin= 1 EnMin= -153.021393118210     IErMin= 1 ErrMin= 1.79D-05
 ErrMax= 1.79D-05  0.00D+00 EMaxC= 1.00D-01 BMatC= 2.01D-08 BMatP= 2.01D-08
 IDIUse=1 WtCom= 1.00D+00 WtEn= 0.00D+00
 Coeff-Com:  0.100D+01
 Coeff:      0.100D+01
 Gap=     0.203 Goal=   None    Shift=    0.000
 Gap=     0.026 Goal=   None    Shift=    0.000
 RMSDP=1.46D-06 MaxDP=1.45D-05 DE= 2.33D-05 OVMax= 5.17D-05

 Cycle  13  Pass 1  IDiag  1:
 E= -153.021393127600     Delta-E=       -0.000000009390 Rises=F Damp=F
 DIIS: error= 4.37D-06 at cycle   2 NSaved=   2.
 NSaved= 2 IEnMin= 2 EnMin= -153.021393127600     IErMin= 2 ErrMin= 4.37D-06
 ErrMax= 4.37D-06  0.00D+00 EMaxC= 1.00D-01 BMatC= 1.73D-09 BMatP= 2.01D-08
 IDIUse=1 WtCom= 1.00D+00 WtEn= 0.00D+00
 Coeff-Com:  0.881D-01 0.912D+00
 Coeff:      0.881D-01 0.912D+00
 Gap=     0.203 Goal=   None    Shift=    0.000
 Gap=     0.026 Goal=   None    Shift=    0.000
 RMSDP=2.84D-06 MaxDP=2.29D-05 DE=-9.39D-09 OVMax= 4.35D-05

 Cycle  14  Pass 1  IDiag  1:
 E= -153.021393126619     Delta-E=        0.000000000981 Rises=F Damp=F
 DIIS: error= 1.01D-05 at cycle   3 NSaved=   3.
 NSaved= 3 IEnMin= 2 EnMin= -153.021393127600     IErMin= 2 ErrMin= 4.37D-06
 ErrMax= 1.01D-05  0.00D+00 EMaxC= 1.00D-01 BMatC= 6.20D-09 BMatP= 1.73D-09
 IDIUse=1 WtCom= 1.00D+00 WtEn= 0.00D+00
 Coeff-Com:  0.274D-01 0.656D+00 0.317D+00
 Coeff:      0.274D-01 0.656D+00 0.317D+00
 Gap=     0.203 Goal=   None    Shift=    0.000
 Gap=     0.026 Goal=   None    Shift=    0.000
 RMSDP=1.66D-06 MaxDP=1.46D-05 DE= 9.81D-10 OVMax= 3.29D-05

 Cycle  15  Pass 1  IDiag  1:
 E= -153.021393128161     Delta-E=       -0.000000001542 Rises=F Damp=F
 DIIS: error= 2.46D-06 at cycle   4 NSaved=   4.
 NSaved= 4 IEnMin= 4 EnMin= -153.021393128161     IErMin= 4 ErrMin= 2.46D-06
 ErrMax= 2.46D-06  0.00D+00 EMaxC= 1.00D-01 BMatC= 6.51D-10 BMatP= 1.73D-09
 IDIUse=1 WtCom= 1.00D+00 WtEn= 0.00D+00
 Coeff-Com: -0.570D-02 0.354D+00 0.213D+00 0.438D+00
 Coeff:     -0.570D-02 0.354D+00 0.213D+00 0.438D+00
 Gap=     0.203 Goal=   None    Shift=    0.000
 Gap=     0.026 Goal=   None    Shift=    0.000
 RMSDP=4.07D-07 MaxDP=4.63D-06 DE=-1.54D-09 OVMax= 1.01D-05

 Cycle  16  Pass 1  IDiag  1:
 E= -153.021393128290     Delta-E=       -0.000000000129 Rises=F Damp=F
 DIIS: error= 8.92D-07 at cycle   5 NSaved=   5.
 NSaved= 5 IEnMin= 5 EnMin= -153.021393128290     IErMin= 5 ErrMin= 8.92D-07
 ErrMax= 8.92D-07  0.00D+00 EMaxC= 1.00D-01 BMatC= 8.14D-11 BMatP= 6.51D-10
 IDIUse=1 WtCom= 1.00D+00 WtEn= 0.00D+00
 Coeff-Com: -0.585D-02 0.884D-01 0.326D-01 0.266D+00 0.618D+00
 Coeff:     -0.585D-02 0.884D-01 0.326D-01 0.266D+00 0.618D+00
 Gap=     0.203 Goal=   None    Shift=    0.000
 Gap=     0.026 Goal=   None    Shift=    0.000
 RMSDP=1.78D-07 MaxDP=1.47D-06 DE=-1.29D-10 OVMax= 2.93D-06

 Cycle  17  Pass 1  IDiag  1:
 E= -153.021393128310     Delta-E=       -0.000000000020 Rises=F Damp=F
 DIIS: error= 1.89D-07 at cycle   6 NSaved=   6.
 NSaved= 6 IEnMin= 6 EnMin= -153.021393128310     IErMin= 6 ErrMin= 1.89D-07
 ErrMax= 1.89D-07  0.00D+00 EMaxC= 1.00D-01 BMatC= 4.41D-12 BMatP= 8.14D-11
 IDIUse=1 WtCom= 1.00D+00 WtEn= 0.00D+00
 Coeff-Com: -0.201D-02-0.418D-02-0.163D-01 0.733D-01 0.298D+00 0.652D+00
 Coeff:     -0.201D-02-0.418D-02-0.163D-01 0.733D-01 0.298D+00 0.652D+00
 Gap=     0.203 Goal=   None    Shift=    0.000
 Gap=     0.026 Goal=   None    Shift=    0.000
 RMSDP=4.70D-08 MaxDP=4.34D-07 DE=-1.99D-11 OVMax= 9.01D-07

 Cycle  18  Pass 1  IDiag  1:
 E= -153.021393128311     Delta-E=       -0.000000000001 Rises=F Damp=F
 DIIS: error= 1.09D-07 at cycle   7 NSaved=   7.
 NSaved= 7 IEnMin= 7 EnMin= -153.021393128311     IErMin= 7 ErrMin= 1.09D-07
 ErrMax= 1.09D-07  0.00D+00 EMaxC= 1.00D-01 BMatC= 7.78D-13 BMatP= 4.41D-12
 IDIUse=1 WtCom= 1.00D+00 WtEn= 0.00D+00
 Coeff-Com:  0.592D-03-0.218D-01-0.764D-02-0.501D-01-0.411D-01 0.173D+00
 Coeff-Com:  0.947D+00
 Coeff:      0.592D-03-0.218D-01-0.764D-02-0.501D-01-0.411D-01 0.173D+00
 Coeff:      0.947D+00
 Gap=     0.203 Goal=   None    Shift=    0.000
 Gap=     0.026 Goal=   None    Shift=    0.000
 RMSDP=2.18D-08 MaxDP=2.74D-07 DE=-1.14D-12 OVMax= 5.01D-07

 Cycle  19  Pass 1  IDiag  1:
 E= -153.021393128311     Delta-E=        0.000000000000 Rises=F Damp=F
 DIIS: error= 1.04D-08 at cycle   8 NSaved=   8.
 NSaved= 8 IEnMin= 8 EnMin= -153.021393128311     IErMin= 8 ErrMin= 1.04D-08
 ErrMax= 1.04D-08  0.00D+00 EMaxC= 1.00D-01 BMatC= 1.30D-14 BMatP= 7.78D-13
 IDIUse=1 WtCom= 1.00D+00 WtEn= 0.00D+00
 Coeff-Com:  0.154D-03-0.250D-02-0.372D-03-0.858D-02-0.218D-01-0.505D-02
 Coeff-Com:  0.131D+00 0.907D+00
 Coeff:      0.154D-03-0.250D-02-0.372D-03-0.858D-02-0.218D-01-0.505D-02
 Coeff:      0.131D+00 0.907D+00
 Gap=     0.203 Goal=   None    Shift=    0.000
 Gap=     0.026 Goal=   None    Shift=    0.000
 RMSDP=3.26D-09 MaxDP=2.52D-08 DE=-2.27D-13 OVMax= 4.40D-08

 SCF Done:  E(UB97D) =  -153.021393128     A.U. after   19 cycles
            NFock= 19  Conv=0.33D-08     -V/T= 2.0027
 <Sx>= 0.0000 <Sy>= 0.0000 <Sz>= 0.5000 <S**2>= 0.7625 S= 0.5062
 <L.S>= 0.000000000000E+00
 KE= 1.526083674860D+02 PE=-4.869415506626D+02 EE= 1.170978793669D+02
 Annihilation of the first spin contaminant:
 S**2 before annihilation     0.7625,   after     0.7501
 Leave Link  502 at Sat Feb 16 13:47:13 2019, MaxMem=   196608000 cpu:        82.3
 (Enter /cm/shared/c3ddb/gaussian/09.d01/g09/l508.exe)
 QCSCF skips out because SCF is already converged.
 Leave Link  508 at Sat Feb 16 13:47:13 2019, MaxMem=   196608000 cpu:         0.0
 (Enter /cm/shared/c3ddb/gaussian/09.d01/g09/l801.exe)
 DoSCS=F DFT=T ScalE2(SS,OS)=  1.000000  1.000000
 Range of M.O.s used for correlation:     1    33
 NBasis=    33 NAE=    12 NBE=    11 NFC=     0 NFV=     0
 NROrb=     33 NOA=    12 NOB=    11 NVA=    21 NVB=    22

 **** Warning!!: The smallest beta delta epsilon is  0.25793101D-01

 Leave Link  801 at Sat Feb 16 13:47:13 2019, MaxMem=   196608000 cpu:         0.2
 (Enter /cm/shared/c3ddb/gaussian/09.d01/g09/l1101.exe)
 Using compressed storage, NAtomX=     6.
 Will process      7 centers per pass.
 R6Disp: Adding Grimme-D2 dispersion energy 1st derivatives to the gradient.
 Leave Link 1101 at Sat Feb 16 13:47:14 2019, MaxMem=   196608000 cpu:         2.7
 (Enter /cm/shared/c3ddb/gaussian/09.d01/g09/l1102.exe)
 Symmetrizing basis deriv contribution to polar:
 IMax=3 JMax=2 DiffMx= 0.00D+00
 Leave Link 1102 at Sat Feb 16 13:47:14 2019, MaxMem=   196608000 cpu:         0.7
 (Enter /cm/shared/c3ddb/gaussian/09.d01/g09/l1110.exe)
 Forming Gx(P) for the SCF density, NAtomX=     6.
 Integral derivatives from FoFJK, PRISM(SPDF).
 Do as many integral derivatives as possible in FoFJK.
 G2DrvN: MDV=     196607848.
 G2DrvN: will do     7 centers at a time, making    1 passes.
 Calling FoFCou, ICntrl=  3507 FMM=F I1Cent=   0 AccDes= 0.00D+00.
 FoFJK:  IHMeth= 1 ICntrl=    3507 DoSepK=F KAlg= 0 I1Cent=   0 FoldK=F
 IRaf=         0 NMat=   1 IRICut=       1 DoRegI=T DoRafI=F ISym2E= 1.
 FoFCou: FMM=F IPFlag=           0 FMFlag=      100000 FMFlg1=           0
         NFxFlg=           0 DoJE=F BraDBF=F KetDBF=F FulRan=T
         wScrn=  0.000000 ICntrl=    3507 IOpCl=  0 I1Cent=           0 NGrid=           0
         NMat0=    1 NMatS0=      1 NMatT0=    0 NMatD0=    1 NMtDS0=    0 NMtDT0=    0
 Petite list used in FoFCou.
 End of G2Drv F.D. properties file   721 does not exist.
 End of G2Drv F.D. properties file   722 does not exist.
 End of G2Drv F.D. properties file   788 does not exist.
 Leave Link 1110 at Sat Feb 16 13:47:16 2019, MaxMem=   196608000 cpu:         9.0
 (Enter /cm/shared/c3ddb/gaussian/09.d01/g09/l1002.exe)
 Minotr:  UHF open shell wavefunction.
          IDoAtm=111111
          Direct CPHF calculation.
          Differentiating once with respect to nuclear coordinates.
          Using symmetry in CPHF.
          Requested convergence is 1.0D-08 RMS, and 1.0D-07 maximum.
          Secondary convergence is 1.0D-12 RMS, and 1.0D-12 maximum.
          NewPWx=T KeepS1=F KeepF1=F KeepIn=T MapXYZ=F SortEE=F KeepMc=T.
          MDV=     196607870 using IRadAn=       2.
 Generate precomputed XC quadrature information.
 Keep J ints in memory in symmetry-blocked form, NReq=1019690.
 FoFCou: FMM=F IPFlag=           0 FMFlag=           0 FMFlg1=           0
         NFxFlg=           0 DoJE=F BraDBF=F KetDBF=F FulRan=T
         wScrn=  0.000000 ICntrl=     600 IOpCl=  0 I1Cent=           0 NGrid=           0
         NMat0=    1 NMatS0=    561 NMatT0=    0 NMatD0=    1 NMtDS0=    0 NMtDT0=    0
 Petite list used in FoFCou.
          Solving linear equations simultaneously, MaxMat=       0.
          There are    21 degrees of freedom in the 1st order CPHF.  IDoFFX=6 NUNeed=     0.
     15 vectors produced by pass  0 Test12= 2.35D-15 4.76D-09 XBig12= 4.19D-01 4.70D-01.
 AX will form    15 AO Fock derivatives at one time.
     15 vectors produced by pass  1 Test12= 2.35D-15 4.76D-09 XBig12= 3.70D-01 3.38D-01.
     15 vectors produced by pass  2 Test12= 2.35D-15 4.76D-09 XBig12= 4.37D-03 1.61D-02.
     15 vectors produced by pass  3 Test12= 2.35D-15 4.76D-09 XBig12= 3.06D-05 1.05D-03.
     15 vectors produced by pass  4 Test12= 2.35D-15 4.76D-09 XBig12= 6.81D-08 5.90D-05.
     13 vectors produced by pass  5 Test12= 2.35D-15 4.76D-09 XBig12= 1.71D-10 3.08D-06.
      4 vectors produced by pass  6 Test12= 2.35D-15 4.76D-09 XBig12= 2.49D-13 1.26D-07.
      1 vectors produced by pass  7 Test12= 2.35D-15 4.76D-09 XBig12= 6.40D-16 7.29D-09.
 InvSVY:  IOpt=1 It=  1 EMax= 8.88D-16
 Solved reduced A of dimension    93 with    15 vectors.
 End of Minotr F.D. properties file   721 does not exist.
 End of Minotr F.D. properties file   722 does not exist.
 End of Minotr F.D. properties file   788 does not exist.
 Leave Link 1002 at Sat Feb 16 13:47:22 2019, MaxMem=   196608000 cpu:        41.4
 (Enter /cm/shared/c3ddb/gaussian/09.d01/g09/l601.exe)
 Copying SCF densities to generalized density rwf, IOpCl= 1 IROHF=0.

 **********************************************************************

            Population analysis using the SCF density.

 **********************************************************************

 Orbital symmetries:
 Alpha Orbitals:
       Occupied  (A') (A') (A') (A') (A') (A') (A') (A') (A") (A')
                 (A") (A')
       Virtual   (A") (A') (A') (A') (A') (A') (A") (A') (A") (A')
                 (A') (A') (A') (A') (A') (A') (A") (A') (A') (A')
                 (A')
 Beta  Orbitals:
       Occupied  (A') (A') (A') (A') (A') (A') (A') (A') (A') (A")
                 (A')
       Virtual   (A") (A") (A') (A') (A') (A') (A') (A") (A') (A")
                 (A') (A') (A') (A') (A') (A') (A') (A") (A') (A')
                 (A') (A')
 The electronic state is 2-A".
 Alpha  occ. eigenvalues --  -18.77877  -9.98356  -9.95207  -0.97380  -0.72578
 Alpha  occ. eigenvalues --   -0.52897  -0.46110  -0.40534  -0.37339  -0.35797
 Alpha  occ. eigenvalues --   -0.23980  -0.21744
 Alpha virt. eigenvalues --   -0.01409   0.08006   0.10235   0.15130   0.24257
 Alpha virt. eigenvalues --    0.29560   0.47441   0.49786   0.56582   0.60419
 Alpha virt. eigenvalues --    0.60741   0.65623   0.78133   0.83517   0.87046
 Alpha virt. eigenvalues --    0.88589   0.91761   1.02101   1.07643   1.18090
 Alpha virt. eigenvalues --    1.71335
  Beta  occ. eigenvalues --  -18.77234  -9.98426  -9.94916  -0.95416  -0.70113
  Beta  occ. eigenvalues --   -0.51939  -0.45195  -0.39340  -0.34748  -0.34379
  Beta  occ. eigenvalues --   -0.20278
  Beta virt. eigenvalues --   -0.17699   0.01279   0.08713   0.11097   0.15553
  Beta virt. eigenvalues --    0.24660   0.29957   0.48752   0.50392   0.57469
  Beta virt. eigenvalues --    0.60562   0.60904   0.66224   0.79031   0.83570
  Beta virt. eigenvalues --    0.88315   0.89371   0.95090   1.02925   1.08278
  Beta virt. eigenvalues --    1.18216   1.73003
          Condensed to atoms (all electrons):
               1          2          3          4          5          6
     1  O    8.074199  -0.087290   0.445187   0.003276   0.002524  -0.076437
     2  C   -0.087290   5.530805   0.281952   0.329148   0.330685  -0.157284
     3  C    0.445187   0.281952   4.787230  -0.006649  -0.021609   0.363376
     4  H    0.003276   0.329148  -0.006649   0.534970  -0.028240   0.001391
     5  H    0.002524   0.330685  -0.021609  -0.028240   0.537722   0.008556
     6  H   -0.076437  -0.157284   0.363376   0.001391   0.008556   0.757902
          Atomic-Atomic Spin Densities.
               1          2          3          4          5          6
     1  O    0.511201  -0.017225  -0.041244  -0.000134   0.000252   0.001283
     2  C   -0.017225   0.794473   0.009908  -0.002129  -0.005761  -0.000037
     3  C   -0.041244   0.009908  -0.125026  -0.002286  -0.000740   0.008851
     4  H   -0.000134  -0.002129  -0.002286  -0.039506   0.002138   0.000089
     5  H    0.000252  -0.005761  -0.000740   0.002138  -0.037111  -0.000170
     6  H    0.001283  -0.000037   0.008851   0.000089  -0.000170  -0.009620
 Mulliken charges and spin densities:
               1          2
     1  O   -0.361458   0.454132
     2  C   -0.228017   0.779229
     3  C    0.150513  -0.150537
     4  H    0.166104  -0.041829
     5  H    0.170361  -0.041392
     6  H    0.102497   0.000396
 Sum of Mulliken charges =   0.00000   1.00000
 Mulliken charges and spin densities with hydrogens summed into heavy atoms:
               1          2
     1  O   -0.361458   0.454132
     2  C    0.108448   0.696009
     3  C    0.253009  -0.150141
 APT charges:
               1
     1  O   -0.221189
     2  C   -0.561529
     3  C   -0.361921
     4  H    0.475136
     5  H    0.371565
     6  H    0.297938
 Sum of APT charges =   0.00000
 APT charges with hydrogens summed into heavy atoms:
               1
     1  O   -0.221189
     2  C    0.285172
     3  C   -0.063982
 Electronic spatial extent (au):  <R**2>=            148.7950
 Charge=              0.0000 electrons
 Dipole moment (field-independent basis, Debye):
    X=              3.0518    Y=             -0.1204    Z=              0.0000  Tot=              3.0542
 Quadrupole moment (field-independent basis, Debye-Ang):
   XX=            -19.0857   YY=            -16.5912   ZZ=            -17.7824
   XY=             -0.2297   XZ=              0.0000   YZ=              0.0000
 Traceless Quadrupole moment (field-independent basis, Debye-Ang):
   XX=             -1.2659   YY=              1.2285   ZZ=              0.0374
   XY=             -0.2297   XZ=              0.0000   YZ=              0.0000
 Octapole moment (field-independent basis, Debye-Ang**2):
  XXX=              4.3643  YYY=             -1.4253  ZZZ=              0.0000  XYY=             -0.3222
  XXY=             -0.1448  XXZ=              0.0000  XZZ=             -2.3553  YZZ=              0.1905
  YYZ=              0.0000  XYZ=              0.0000
 Hexadecapole moment (field-independent basis, Debye-Ang**3):
 XXXX=           -118.6787 YYYY=            -41.4850 ZZZZ=            -15.7369 XXXY=             12.6120
 XXXZ=              0.0000 YYYX=              9.4823 YYYZ=              0.0000 ZZZX=              0.0000
 ZZZY=              0.0000 XXYY=            -28.2164 XXZZ=            -23.2687 YYZZ=            -10.4910
 XXYZ=              0.0000 YYXZ=              0.0000 ZZXY=              3.8586
 N-N= 6.421391068138D+01 E-N=-4.869415508183D+02  KE= 1.526083674860D+02
 Symmetry A'   KE= 1.477429494652D+02
 Symmetry A"   KE= 4.865418020762D+00
  Exact polarizability:   0.000   0.000   0.000   0.000   0.000   0.000
 Approx polarizability:  73.514  -3.659  32.834   0.000   0.000  12.340
                          Isotropic Fermi Contact Couplings
        Atom                 a.u.       MegaHertz       Gauss      10(-4) cm-1
     1  O(17)              0.08392     -50.87493     -18.15344     -16.97005
     2  C(13)              0.10934     122.92466      43.86257      41.00325
     3  C(13)             -0.04540     -51.03500     -18.21056     -17.02344
     4  H(1)              -0.01299     -58.07462     -20.72247     -19.37161
     5  H(1)              -0.01259     -56.25825     -20.07434     -18.76573
     6  H(1)               0.00002       0.09741       0.03476       0.03249
 --------------------------------------------------------
       Center         ----  Spin Dipole Couplings  ----
                      3XX-RR        3YY-RR        3ZZ-RR
 --------------------------------------------------------
     1   Atom       -0.806025     -0.815371      1.621395
     2   Atom       -0.370682     -0.373553      0.744235
     3   Atom        0.082338      0.013794     -0.096131
     4   Atom        0.047554     -0.036356     -0.011198
     5   Atom       -0.047435      0.059742     -0.012307
     6   Atom        0.003508      0.007395     -0.010904
 --------------------------------------------------------
                        XY            XZ            YZ
 --------------------------------------------------------
     1   Atom        0.002285      0.000000      0.000000
     2   Atom        0.005576      0.000000      0.000000
     3   Atom       -0.009356      0.000000      0.000000
     4   Atom        0.040336      0.000000      0.000000
     5   Atom        0.008889      0.000000      0.000000
     6   Atom       -0.005460      0.000000      0.000000
 --------------------------------------------------------


 ---------------------------------------------------------------------------------
              Anisotropic Spin Dipole Couplings in Principal Axis System
 ---------------------------------------------------------------------------------

       Atom             a.u.   MegaHertz   Gauss  10(-4) cm-1        Axes

              Baa    -0.8159    59.038    21.066    19.693 -0.2254  0.9743  0.0000
     1 O(17)  Bbb    -0.8055    58.285    20.798    19.442  0.9743  0.2254  0.0000
              Bcc     1.6214  -117.323   -41.864   -39.135  0.0000  0.0000  1.0000
 
              Baa    -0.3779   -50.707   -18.094   -16.914 -0.6127  0.7903  0.0000
     2 C(13)  Bbb    -0.3664   -49.162   -17.542   -16.399  0.7903  0.6127  0.0000
              Bcc     0.7442    99.869    35.636    33.313  0.0000  0.0000  1.0000
 
              Baa    -0.0961   -12.900    -4.603    -4.303  0.0000  0.0000  1.0000
     3 C(13)  Bbb     0.0125     1.683     0.600     0.561  0.1329  0.9911  0.0000
              Bcc     0.0836    11.217     4.003     3.742  0.9911 -0.1329  0.0000
 
              Baa    -0.0526   -28.065   -10.014    -9.362 -0.3736  0.9276  0.0000
     4 H(1)   Bbb    -0.0112    -5.975    -2.132    -1.993  0.0000  0.0000  1.0000
              Bcc     0.0638    34.040    12.146    11.355  0.9276  0.3736  0.0000
 
              Baa    -0.0482   -25.700    -9.170    -8.573  0.9966 -0.0821  0.0000
     5 H(1)   Bbb    -0.0123    -6.566    -2.343    -2.190  0.0000  0.0000  1.0000
              Bcc     0.0605    32.266    11.513    10.763  0.0821  0.9966  0.0000
 
              Baa    -0.0109    -5.818    -2.076    -1.941  0.0000  0.0000  1.0000
     6 H(1)   Bbb    -0.0003    -0.184    -0.065    -0.061  0.8171  0.5765  0.0000
              Bcc     0.0112     6.001     2.141     2.002 -0.5765  0.8171  0.0000
 

 ---------------------------------------------------------------------------------

 No NMR shielding tensors so no spin-rotation constants.
 Leave Link  601 at Sat Feb 16 13:47:24 2019, MaxMem=   196608000 cpu:        11.4
 (Enter /cm/shared/c3ddb/gaussian/09.d01/g09/l701.exe)
 Compute integral second derivatives.
 ... and contract with generalized density number  0.
 R6Disp: Adding Grimme-D2 dispersion energy 2nd derivatives to the Hessian.
 Leave Link  701 at Sat Feb 16 13:47:25 2019, MaxMem=   196608000 cpu:         3.3
 (Enter /cm/shared/c3ddb/gaussian/09.d01/g09/l702.exe)
 L702 exits ... SP integral derivatives will be done elsewhere.
 Leave Link  702 at Sat Feb 16 13:47:25 2019, MaxMem=   196608000 cpu:         0.2
 (Enter /cm/shared/c3ddb/gaussian/09.d01/g09/l703.exe)
 Compute integral second derivatives, UseDBF=F ICtDFT=           0.
 Integral derivatives from FoFJK, PRISM(SPDF).
 Calling FoFJK, ICntrl=    100547 FMM=F ISym2X=1 I1Cent= 0 IOpClX= 0 NMat=1 NMatS=1 NMatT=0.
 FoFJK:  IHMeth= 1 ICntrl=  100547 DoSepK=F KAlg= 0 I1Cent=   0 FoldK=F
 IRaf=         0 NMat=   1 IRICut=       1 DoRegI=T DoRafI=F ISym2E= 1.
 FoFCou: FMM=F IPFlag=           0 FMFlag=      100000 FMFlg1=         800
         NFxFlg=           0 DoJE=F BraDBF=F KetDBF=F FulRan=T
         wScrn=  0.000000 ICntrl=  100547 IOpCl=  0 I1Cent=           0 NGrid=           0
         NMat0=    1 NMatS0=      1 NMatT0=    0 NMatD0=    1 NMtDS0=    0 NMtDT0=    0
 Petite list used in FoFCou.
 Leave Link  703 at Sat Feb 16 13:47:26 2019, MaxMem=   196608000 cpu:         8.5
 (Enter /cm/shared/c3ddb/gaussian/09.d01/g09/l716.exe)
 Dipole        = 1.20068221D+00-4.73817683D-02 2.71913144D-18
 Polarizability= 0.00000000D+00 0.00000000D+00 0.00000000D+00
                 0.00000000D+00 0.00000000D+00 0.00000000D+00
 ***** Axes restored to original set *****
 -------------------------------------------------------------------
 Center     Atomic                   Forces (Hartrees/Bohr)
 Number     Number              X              Y              Z
 -------------------------------------------------------------------
      1        8          -0.041832310   -0.010586633   -0.000042513
      2        6           0.022546801   -0.066673086   -0.000267740
      3        6           0.007068327    0.070570889    0.000283393
      4        1           0.005393446    0.000081329    0.000000327
      5        1          -0.000389614   -0.007219052   -0.000028990
      6        1           0.007213350    0.013826553    0.000055524
 -------------------------------------------------------------------
 Cartesian Forces:  Max     0.070570889 RMS     0.026002794
 Force constants in Cartesian coordinates: 
                1             2             3             4             5 
      1  0.636271D+00
      2 -0.583270D-01  0.614389D-01
      3 -0.234223D-03  0.236063D-03  0.265505D-02
      4 -0.773506D-01  0.503967D-01  0.202379D-03  0.702827D+00
      5  0.718673D-01  0.325356D-02 -0.506855D-04 -0.854922D-01  0.770845D+00
      6  0.288599D-03 -0.506855D-04  0.158752D-01 -0.343310D-03  0.283675D-02
      7 -0.507669D+00  0.384157D-01  0.154265D-03 -0.164043D+00  0.121712D+00
      8 -0.770129D-02 -0.816473D-01 -0.201519D-03  0.185057D+00 -0.396719D+00
      9 -0.309276D-04 -0.201519D-03 -0.314655D-01  0.743137D-03 -0.140632D-02
     10  0.100018D-03  0.412608D-02  0.165691D-04 -0.354748D+00 -0.114272D-01
     11  0.177964D-02 -0.381129D-02 -0.279343D-04 -0.208112D-01 -0.578046D-01
     12  0.714659D-05 -0.279343D-04  0.314485D-02 -0.835728D-04 -0.135314D-03
     13  0.198279D-02 -0.280317D-02 -0.112567D-04 -0.114892D+00 -0.116742D+00
     14  0.157287D-02  0.496080D-02  0.431677D-04 -0.109877D+00 -0.288282D+00
     15  0.631616D-05  0.431677D-04 -0.578871D-02 -0.441237D-03 -0.104020D-02
     16 -0.533337D-01 -0.318084D-01 -0.127734D-03  0.820619D-02  0.200826D-01
     17 -0.919160D-02  0.158054D-01  0.000000D+00 -0.192733D-01 -0.312930D-01
     18 -0.369110D-04  0.000000D+00  0.155791D-01 -0.773961D-04 -0.204236D-03
                6             7             8             9            10 
      6  0.644433D-01
      7  0.488760D-03  0.772216D+00
      8 -0.140632D-02 -0.777387D-01  0.738177D+00
      9 -0.465209D-01 -0.312174D-03  0.255259D-02  0.102538D+00
     10 -0.458894D-04 -0.107020D-01 -0.121766D-01 -0.488978D-04  0.369479D+00
     11 -0.135314D-03  0.302981D-01  0.577569D-02 -0.140141D-04  0.140138D-01
     12 -0.241091D-01  0.121668D-03 -0.140142D-04  0.926548D-02  0.562765D-04
     13 -0.468805D-03  0.116718D-01  0.188836D-01  0.758313D-04 -0.518862D-02
     14 -0.104020D-02 -0.226499D-01 -0.238299D-01 -0.154176D-03  0.478813D-02
     15 -0.292539D-01 -0.909553D-04 -0.154176D-03  0.145625D-01  0.192277D-04
     16  0.806460D-04 -0.101474D+00 -0.106325D+00 -0.426969D-03  0.105952D-02
     17 -0.204236D-03 -0.900372D-01 -0.241757D+00 -0.776560D-03  0.675798D-03
     18  0.195655D-01 -0.361564D-03 -0.776560D-03 -0.483794D-01  0.271383D-05
               11            12            13            14            15 
     11  0.517639D-01
     12  0.163173D-03  0.111310D-01
     13 -0.249520D-01 -0.100200D-03  0.107177D+00
     14  0.352041D-02 -0.737363D-05  0.122501D+00  0.306871D+00
     15 -0.737370D-05  0.535658D-02  0.491931D-03  0.118420D-02  0.119848D-01
     16 -0.328361D-03 -0.131858D-05 -0.751115D-03  0.366500D-02  0.147176D-04
     17  0.555928D-03  0.214635D-04  0.311263D-02 -0.324109D-02 -0.256200D-04
     18  0.214634D-04 -0.478885D-02  0.124994D-04 -0.256200D-04  0.313874D-02
               16            17            18 
     16  0.146293D+00
     17  0.114714D+00  0.259929D+00
     18  0.460658D-03  0.984045D-03  0.148849D-01
 FormGI is forming the generalized inverse of G from B-inverse, IUseBI=4.
 Force constants in internal coordinates: 
                1             2             3             4             5 
      1  0.641861D+00
      2  0.106608D+00  0.588800D+00
      3  0.295661D-03 -0.154632D-02  0.370101D+00
      4  0.188120D-02  0.394996D-02 -0.165580D-02  0.365020D+00
      5  0.362521D-01  0.829923D-02  0.116455D-02 -0.349974D-03  0.330918D+00
      6  0.420346D-02  0.130628D-01  0.596009D-02 -0.127293D-01 -0.190297D-02
      7 -0.379787D-02  0.550438D-02 -0.110173D-01  0.926664D-02  0.329053D-02
      8 -0.405587D-03 -0.185672D-01  0.505724D-02  0.346262D-02 -0.138756D-02
      9  0.148496D-01  0.344659D-02  0.653565D-02 -0.772519D-02 -0.182125D-01
     10  0.286060D-01 -0.256060D-01 -0.277907D-02  0.458117D-03  0.261741D-02
     11 -0.434556D-01  0.221594D-01 -0.375658D-02  0.726707D-02  0.155950D-01
     12  0.000000D+00  0.000000D+00  0.000000D+00  0.000000D+00  0.000000D+00
     13  0.000000D+00  0.000000D+00  0.000000D+00  0.000000D+00  0.000000D+00
     14  0.000000D+00  0.000000D+00  0.000000D+00  0.000000D+00  0.000000D+00
     15  0.000000D+00  0.000000D+00  0.000000D+00  0.000000D+00  0.000000D+00
                6             7             8             9            10 
      6  0.803164D-01
      7 -0.437821D-01  0.785840D-01
      8 -0.365343D-01 -0.348019D-01  0.713362D-01
      9  0.156036D-01 -0.181814D-01  0.257781D-02  0.134924D+00
     10 -0.394393D-02  0.266639D-02  0.127754D-02 -0.735213D-01  0.127988D+00
     11 -0.116597D-01  0.155150D-01 -0.385535D-02 -0.614022D-01 -0.544663D-01
     12  0.000000D+00  0.000000D+00  0.000000D+00  0.000000D+00  0.000000D+00
     13  0.000000D+00  0.000000D+00  0.000000D+00  0.000000D+00  0.000000D+00
     14  0.000000D+00  0.000000D+00  0.000000D+00  0.000000D+00  0.000000D+00
     15  0.000000D+00  0.000000D+00  0.000000D+00  0.000000D+00  0.000000D+00
               11            12            13            14            15 
     11  0.115869D+00
     12  0.000000D+00  0.240561D-01
     13  0.000000D+00 -0.356827D-02  0.270843D-01
     14  0.000000D+00  0.102394D-01 -0.208773D-01  0.283408D-01
     15  0.000000D+00 -0.173849D-01  0.977524D-02 -0.277588D-02  0.243843D-01
 Leave Link  716 at Sat Feb 16 13:47:26 2019, MaxMem=   196608000 cpu:         0.6
 (Enter /cm/shared/c3ddb/gaussian/09.d01/g09/l103.exe)

 GradGradGradGradGradGradGradGradGradGradGradGradGradGradGradGradGradGrad
 Berny optimization.
 Red2BG is reusing G-inverse.
 Internal  Forces:  Max     0.076689846 RMS     0.024267915
 Search for a local minimum.
 Step number   1 out of a maximum of   25
 All quantities printed in internal units (Hartrees-Bohrs-Radians)
 RMS Force = .24268D-01 SwitMx=.10000D-02 MixMth= 1
 Mixed Optimization -- RFO/linear search
 Second derivative matrix not updated -- analytic derivatives used.
 The second derivative matrix:
                          R1        R2        R3        R4        R5
           R1           0.64186
           R2           0.10661   0.58880
           R3           0.00030  -0.00155   0.37010
           R4           0.00188   0.00395  -0.00166   0.36502
           R5           0.03625   0.00830   0.00116  -0.00035   0.33092
           A1           0.00420   0.01306   0.00596  -0.01273  -0.00190
           A2          -0.00380   0.00550  -0.01102   0.00927   0.00329
           A3          -0.00041  -0.01857   0.00506   0.00346  -0.00139
           A4           0.01485   0.00345   0.00654  -0.00773  -0.01821
           A5           0.02861  -0.02561  -0.00278   0.00046   0.00262
           A6          -0.04346   0.02216  -0.00376   0.00727   0.01560
           D1           0.00000   0.00000   0.00000   0.00000   0.00000
           D2           0.00000   0.00000   0.00000   0.00000   0.00000
           D3           0.00000   0.00000   0.00000   0.00000   0.00000
           D4           0.00000   0.00000   0.00000   0.00000   0.00000
                          A1        A2        A3        A4        A5
           A1           0.08032
           A2          -0.04378   0.07858
           A3          -0.03653  -0.03480   0.07134
           A4           0.01560  -0.01818   0.00258   0.13492
           A5          -0.00394   0.00267   0.00128  -0.07352   0.12799
           A6          -0.01166   0.01552  -0.00386  -0.06140  -0.05447
           D1           0.00000   0.00000   0.00000   0.00000   0.00000
           D2           0.00000   0.00000   0.00000   0.00000   0.00000
           D3           0.00000   0.00000   0.00000   0.00000   0.00000
           D4           0.00000   0.00000   0.00000   0.00000   0.00000
                          A6        D1        D2        D3        D4
           A6           0.11587
           D1           0.00000   0.02406
           D2           0.00000  -0.00357   0.02708
           D3           0.00000   0.01024  -0.02088   0.02834
           D4           0.00000  -0.01738   0.00978  -0.00278   0.02438
 ITU=  0
     Eigenvalues ---    0.01363   0.03149   0.05874   0.10395   0.11102
     Eigenvalues ---    0.16521   0.20785   0.33256   0.36549   0.37279
     Eigenvalues ---    0.51725   0.72959
 RFO step:  Lambda=-1.62217937D-02 EMin= 1.36339302D-02
 Linear search not attempted -- first point.
 Iteration  1 RMS(Cart)=  0.06675662 RMS(Int)=  0.00262832
 Iteration  2 RMS(Cart)=  0.00304685 RMS(Int)=  0.00000394
 Iteration  3 RMS(Cart)=  0.00000451 RMS(Int)=  0.00000001
 Iteration  4 RMS(Cart)=  0.00000000 RMS(Int)=  0.00000000
 ITry= 1 IFail=0 DXMaxC= 1.65D-01 DCOld= 1.00D+10 DXMaxT= 3.00D-01 DXLimC= 3.00D+00 Rises=F
 ClnCor:  largest displacement from symmetrization is 4.36D-09 for atom     2.
 Variable       Old X    -DE/DX   Delta X   Delta X   Delta X     New X
                                 (Linear)    (Quad)   (Total)
    R1        2.37237   0.04025   0.00000   0.04517   0.04517   2.41753
    R2        2.53252   0.07669   0.00000   0.11911   0.11911   2.65163
    R3        2.04414   0.00539   0.00000   0.01741   0.01741   2.06155
    R4        2.04885   0.00665   0.00000   0.01216   0.01216   2.06101
    R5        2.06377   0.01551   0.00000   0.02733   0.02733   2.09110
    A1        2.11356  -0.00172   0.00000  -0.00368  -0.00368   2.10988
    A2        2.09634   0.00376   0.00000  -0.00110  -0.00110   2.09523
    A3        2.07329  -0.00205   0.00000   0.00478   0.00478   2.07807
    A4        2.28041  -0.02572   0.00000  -0.12068  -0.12068   2.15973
    A5        2.03258   0.01122   0.00000   0.05350   0.05350   2.08608
    A6        1.97020   0.01450   0.00000   0.06718   0.06718   2.03737
    D1        3.14159   0.00000   0.00000   0.00000   0.00000   3.14159
    D2        0.00000   0.00000   0.00000   0.00000   0.00000   0.00000
    D3        0.00000   0.00000   0.00000   0.00000   0.00000   0.00000
    D4        3.14159   0.00000   0.00000   0.00000   0.00000   3.14159
         Item               Value     Threshold  Converged?
 Maximum Force            0.076690     0.000450     NO 
 RMS     Force            0.024268     0.000300     NO 
 Maximum Displacement     0.164979     0.001800     NO 
 RMS     Displacement     0.067099     0.001200     NO 
 Predicted change in Energy=-8.430476D-03
 Lowest energy point so far.  Saving SCF results.
 GradGradGradGradGradGradGradGradGradGradGradGradGradGradGradGradGradGrad

 Leave Link  103 at Sat Feb 16 13:47:30 2019, MaxMem=   196608000 cpu:        21.9
 (Enter /cm/shared/c3ddb/gaussian/09.d01/g09/l202.exe)
                          Input orientation:                          
 ---------------------------------------------------------------------
 Center     Atomic      Atomic             Coordinates (Angstroms)
 Number     Number       Type             X           Y           Z
 ---------------------------------------------------------------------
      1          8           0        1.165262    0.022753   -0.035958
      2          6           0        3.184032   -1.211895   -0.040916
      3          6           0        2.443857   -0.019821   -0.036129
      4          1           0        4.274807   -1.193821   -0.040844
      5          1           0        2.670071   -2.173829   -0.044779
      6          1           0        3.020892    0.924373   -0.032337
 ---------------------------------------------------------------------
                    Distance matrix (angstroms):
                    1          2          3          4          5
     1  O    0.000000
     2  C    2.366392   0.000000
     3  C    1.279303   1.403183   0.000000
     4  H    3.339064   1.090925   2.175012   0.000000
     5  H    2.662612   1.090637   2.165872   1.880322   0.000000
     6  H    2.063078   2.142505   1.106565   2.461529   3.118026
                    6
     6  H    0.000000
 Stoichiometry    C2H3O(2)
 Framework group  CS[SG(C2H3O)]
 Deg. of freedom     9
 Full point group                 CS      NOp   2
 RotChk:  IX=0 Diff= 2.76D-02
 Largest Abelian subgroup         CS      NOp   2
 Largest concise Abelian subgroup C1      NOp   1
                         Standard orientation:                         
 ---------------------------------------------------------------------
 Center     Atomic      Atomic             Coordinates (Angstroms)
 Number     Number       Type             X           Y           Z
 ---------------------------------------------------------------------
      1          8           0       -1.223264    0.048184    0.000000
      2          6           0        1.086846   -0.464847    0.000000
      3          6           0        0.000000    0.422671    0.000000
      4          1           0        2.112774   -0.093917    0.000000
      5          1           0        0.912719   -1.541494    0.000000
      6          1           0        0.239545    1.502997    0.000000
 ---------------------------------------------------------------------
 Rotational constants (GHZ):     66.9564252     11.1887824      9.5867795
 Leave Link  202 at Sat Feb 16 13:47:30 2019, MaxMem=   196608000 cpu:         0.7
 (Enter /cm/shared/c3ddb/gaussian/09.d01/g09/l301.exe)
 Standard basis: 6-31G (6D, 7F)
 Ernie: Thresh=  0.10000D-02 Tol=  0.10000D-05 Strict=F.
 There are    27 symmetry adapted cartesian basis functions of A'  symmetry.
 There are     6 symmetry adapted cartesian basis functions of A"  symmetry.
 There are    27 symmetry adapted basis functions of A'  symmetry.
 There are     6 symmetry adapted basis functions of A"  symmetry.
    33 basis functions,    78 primitive gaussians,    33 cartesian basis functions
    12 alpha electrons       11 beta electrons
       nuclear repulsion energy        62.8398844153 Hartrees.
 IExCor= 3630 DFT=T Ex+Corr=B97D ExCW=0 ScaHFX=  0.000000
 ScaDFX=  1.000000  1.000000  1.000000  1.000000 ScalE2=  1.000000  1.000000
 IRadAn=      0 IRanWt=     -1 IRanGd=            0 ICorTp=0 IEmpDi=121
 NAtoms=    6 NActive=    6 NUniq=    6 SFac= 1.00D+00 NAtFMM=   60 NAOKFM=F Big=F
 Integral buffers will be    131072 words long.
 Raffenetti 2 integral format.
 Two-electron integral symmetry is turned on.
 R6Disp:  Grimme-D2 Dispersion energy=       -0.0021121246 Hartrees.
 Nuclear repulsion after empirical dispersion term =       62.8377722907 Hartrees.
 Leave Link  301 at Sat Feb 16 13:47:30 2019, MaxMem=   196608000 cpu:         0.3
 (Enter /cm/shared/c3ddb/gaussian/09.d01/g09/l302.exe)
 NPDir=0 NMtPBC=     1 NCelOv=     1 NCel=       1 NClECP=     1 NCelD=      1
         NCelK=      1 NCelE2=     1 NClLst=     1 CellRange=     0.0.
 One-electron integrals computed using PRISM.
 NBasis=    33 RedAO= T EigKep=  1.24D-02  NBF=    27     6
 NBsUse=    33 1.00D-06 EigRej= -1.00D+00 NBFU=    27     6
 Precomputing XC quadrature grid using
 IXCGrd= 4 IRadAn=           0 IRanWt=          -1 IRanGd=           0 AccXCQ= 0.00D+00.
 Generated NRdTot=       0 NPtTot=           0 NUsed=           0 NTot=          32
 NSgBfM=    33    33    33    33    33 MxSgAt=     6 MxSgA2=     6.
 Leave Link  302 at Sat Feb 16 13:47:31 2019, MaxMem=   196608000 cpu:         3.7
 (Enter /cm/shared/c3ddb/gaussian/09.d01/g09/l303.exe)
 DipDrv:  MaxL=1.
 Leave Link  303 at Sat Feb 16 13:47:31 2019, MaxMem=   196608000 cpu:         1.0
 (Enter /cm/shared/c3ddb/gaussian/09.d01/g09/l401.exe)
 Initial guess from the checkpoint file:  "check.chk"
 B after Tr=     0.000000    0.000000    0.000000
         Rot=    0.999997    0.000000    0.000000    0.002621 Ang=   0.30 deg.
 Guess basis will be translated and rotated to current coordinates.
 JPrj=2 DoOrth=T DoCkMO=T.
 Initial guess orbital symmetries:
 Alpha Orbitals:
       Occupied  (A') (A') (A') (A') (A') (A') (A') (A') (A") (A')
                 (A") (A')
       Virtual   (A') (A') (A') (A') (A') (A') (A') (A') (A') (A')
                 (A') (A') (A') (A') (A') (A') (A') (A") (A") (A")
                 (A")
 Beta  Orbitals:
       Occupied  (A') (A') (A') (A') (A') (A') (A') (A') (A') (A")
                 (A')
       Virtual   (A') (A') (A') (A') (A') (A') (A') (A') (A') (A')
                 (A') (A') (A') (A') (A') (A') (A') (A") (A") (A")
                 (A") (A")
 The electronic state of the initial guess is 2-A".
 Initial guess <Sx>= 0.0000 <Sy>= 0.0000 <Sz>= 0.5000 <S**2>= 0.7632 S= 0.5066
 Generating alternative initial guess.
 ExpMin= 1.61D-01 ExpMax= 5.48D+03 ExpMxC= 8.25D+02 IAcc=1 IRadAn=         1 AccDes= 0.00D+00
 Harris functional with IExCor= 3630 and IRadAn=       1 diagonalized for initial guess.
 HarFok:  IExCor= 3630 AccDes= 0.00D+00 IRadAn=         1 IDoV= 1 UseB2=F ITyADJ=14
 ICtDFT=  3500011 ScaDFX=  1.000000  1.000000  1.000000  1.000000
 FoFCou: FMM=F IPFlag=           0 FMFlag=      100000 FMFlg1=           0
         NFxFlg=           0 DoJE=T BraDBF=F KetDBF=T FulRan=T
         wScrn=  0.000000 ICntrl=     500 IOpCl=  0 I1Cent=   200000004 NGrid=           0
         NMat0=    1 NMatS0=      1 NMatT0=    0 NMatD0=    1 NMtDS0=    0 NMtDT0=    0
 Petite list used in FoFCou.
 Harris En= -153.054394464321    
 Leave Link  401 at Sat Feb 16 13:47:34 2019, MaxMem=   196608000 cpu:        18.5
 (Enter /cm/shared/c3ddb/gaussian/09.d01/g09/l502.exe)
 UHF open shell SCF:
 Using DIIS extrapolation, IDIIS=  1040.
 Integral symmetry usage will be decided dynamically.
 Keep J ints in memory in symmetry-blocked form, NReq=1029148.
 IVT=        9750 IEndB=        9750 NGot=   196608000 MDV=   196503697
 LenX=   196503697 LenY=   196502167
 Requested convergence on RMS density matrix=1.00D-08 within  64 cycles.
 Requested convergence on MAX density matrix=1.00D-06.
 Requested convergence on             energy=1.00D-06.
 No special actions if energy rises.
 FoFCou: FMM=F IPFlag=           0 FMFlag=           0 FMFlg1=           0
         NFxFlg=           0 DoJE=F BraDBF=F KetDBF=F FulRan=T
         wScrn=  0.000000 ICntrl=     600 IOpCl=  0 I1Cent=           0 NGrid=           0
         NMat0=    1 NMatS0=    561 NMatT0=    0 NMatD0=    1 NMtDS0=    0 NMtDT0=    0
 Petite list used in FoFCou.
 Integral accuracy reduced to 1.0D-05 until final iterations.

 Cycle   1  Pass 0  IDiag  1:
 E= -153.025559122881    
 DIIS: error= 6.37D-03 at cycle   1 NSaved=   1.
 NSaved= 1 IEnMin= 1 EnMin= -153.025559122881     IErMin= 1 ErrMin= 6.37D-03
 ErrMax= 6.37D-03  0.00D+00 EMaxC= 1.00D-01 BMatC= 1.07D-02 BMatP= 1.07D-02
 IDIUse=3 WtCom= 9.36D-01 WtEn= 6.37D-02
 Coeff-Com:  0.100D+01
 Coeff-En:   0.100D+01
 Coeff:      0.100D+01
 Gap=     0.624 Goal=   None    Shift=    0.000
 Gap=     0.330 Goal=   None    Shift=    0.000
 GapD=    0.330 DampG=1.000 DampE=1.000 DampFc=1.0000 IDamp=-1.
 RMSDP=4.56D-03 MaxDP=3.43D-02              OVMax= 3.29D-02

 Cycle   2  Pass 0  IDiag  1:
 E= -153.029764566017     Delta-E=       -0.004205443136 Rises=F Damp=F
 DIIS: error= 4.49D-03 at cycle   2 NSaved=   2.
 NSaved= 2 IEnMin= 2 EnMin= -153.029764566017     IErMin= 2 ErrMin= 4.49D-03
 ErrMax= 4.49D-03  0.00D+00 EMaxC= 1.00D-01 BMatC= 2.48D-03 BMatP= 1.07D-02
 IDIUse=3 WtCom= 9.55D-01 WtEn= 4.49D-02
 Coeff-Com:  0.245D+00 0.755D+00
 Coeff-En:   0.000D+00 0.100D+01
 Coeff:      0.234D+00 0.766D+00
 Gap=     0.181 Goal=   None    Shift=    0.000
 Gap=     0.028 Goal=   None    Shift=    0.000
 RMSDP=1.97D-03 MaxDP=1.89D-02 DE=-4.21D-03 OVMax= 4.58D-02

 Cycle   3  Pass 0  IDiag  1:
 E= -153.028281653008     Delta-E=        0.001482913009 Rises=F Damp=F
 DIIS: error= 1.07D-02 at cycle   3 NSaved=   3.
 NSaved= 3 IEnMin= 2 EnMin= -153.029764566017     IErMin= 2 ErrMin= 4.49D-03
 ErrMax= 1.07D-02  0.00D+00 EMaxC= 1.00D-01 BMatC= 9.17D-03 BMatP= 2.48D-03
 IDIUse=2 WtCom= 0.00D+00 WtEn= 1.00D+00
 Coeff-En:   0.000D+00 0.706D+00 0.294D+00
 Coeff:      0.000D+00 0.706D+00 0.294D+00
 Gap=     0.188 Goal=   None    Shift=    0.000
 Gap=     0.034 Goal=   None    Shift=    0.000
 RMSDP=1.29D-03 MaxDP=1.37D-02 DE= 1.48D-03 OVMax= 3.11D-02

 Cycle   4  Pass 0  IDiag  1:
 E= -153.030350849481     Delta-E=       -0.002069196473 Rises=F Damp=F
 DIIS: error= 1.43D-03 at cycle   4 NSaved=   4.
 NSaved= 4 IEnMin= 4 EnMin= -153.030350849481     IErMin= 4 ErrMin= 1.43D-03
 ErrMax= 1.43D-03  0.00D+00 EMaxC= 1.00D-01 BMatC= 3.17D-04 BMatP= 2.48D-03
 IDIUse=3 WtCom= 9.86D-01 WtEn= 1.43D-02
 Coeff-Com:  0.671D-02 0.355D+00 0.133D+00 0.505D+00
 Coeff-En:   0.000D+00 0.727D-01 0.000D+00 0.927D+00
 Coeff:      0.661D-02 0.351D+00 0.131D+00 0.511D+00
 Gap=     0.188 Goal=   None    Shift=    0.000
 Gap=     0.034 Goal=   None    Shift=    0.000
 RMSDP=3.58D-04 MaxDP=2.67D-03 DE=-2.07D-03 OVMax= 2.60D-03

 Cycle   5  Pass 0  IDiag  1:
 E= -153.030440950493     Delta-E=       -0.000090101011 Rises=F Damp=F
 DIIS: error= 2.09D-04 at cycle   5 NSaved=   5.
 NSaved= 5 IEnMin= 5 EnMin= -153.030440950493     IErMin= 5 ErrMin= 2.09D-04
 ErrMax= 2.09D-04  0.00D+00 EMaxC= 1.00D-01 BMatC= 4.32D-06 BMatP= 3.17D-04
 IDIUse=3 WtCom= 9.98D-01 WtEn= 2.09D-03
 Coeff-Com:  0.793D-03 0.974D-01 0.291D-01 0.189D+00 0.684D+00
 Coeff-En:   0.000D+00 0.000D+00 0.000D+00 0.000D+00 0.100D+01
 Coeff:      0.791D-03 0.972D-01 0.291D-01 0.188D+00 0.685D+00
 Gap=     0.188 Goal=   None    Shift=    0.000
 Gap=     0.034 Goal=   None    Shift=    0.000
 RMSDP=5.86D-05 MaxDP=4.19D-04 DE=-9.01D-05 OVMax= 1.16D-03

 Cycle   6  Pass 0  IDiag  1:
 E= -153.030441946810     Delta-E=       -0.000000996317 Rises=F Damp=F
 DIIS: error= 1.31D-04 at cycle   6 NSaved=   6.
 NSaved= 6 IEnMin= 6 EnMin= -153.030441946810     IErMin= 6 ErrMin= 1.31D-04
 ErrMax= 1.31D-04  0.00D+00 EMaxC= 1.00D-01 BMatC= 1.42D-06 BMatP= 4.32D-06
 IDIUse=3 WtCom= 9.99D-01 WtEn= 1.31D-03
 Coeff-Com: -0.154D-03 0.224D-01 0.574D-02 0.620D-01 0.418D+00 0.492D+00
 Coeff-En:   0.000D+00 0.000D+00 0.000D+00 0.000D+00 0.226D+00 0.774D+00
 Coeff:     -0.154D-03 0.224D-01 0.574D-02 0.619D-01 0.418D+00 0.492D+00
 Gap=     0.188 Goal=   None    Shift=    0.000
 Gap=     0.034 Goal=   None    Shift=    0.000
 RMSDP=2.04D-05 MaxDP=3.34D-04 DE=-9.96D-07 OVMax= 5.17D-04

 Cycle   7  Pass 0  IDiag  1:
 E= -153.030442381878     Delta-E=       -0.000000435068 Rises=F Damp=F
 DIIS: error= 2.51D-05 at cycle   7 NSaved=   7.
 NSaved= 7 IEnMin= 7 EnMin= -153.030442381878     IErMin= 7 ErrMin= 2.51D-05
 ErrMax= 2.51D-05  0.00D+00 EMaxC= 1.00D-01 BMatC= 6.47D-08 BMatP= 1.42D-06
 IDIUse=1 WtCom= 1.00D+00 WtEn= 0.00D+00
 Coeff-Com: -0.606D-04-0.118D-01-0.133D-02-0.245D-01-0.820D-01 0.515D-01
 Coeff-Com:  0.107D+01
 Coeff:     -0.606D-04-0.118D-01-0.133D-02-0.245D-01-0.820D-01 0.515D-01
 Coeff:      0.107D+01
 Gap=     0.188 Goal=   None    Shift=    0.000
 Gap=     0.034 Goal=   None    Shift=    0.000
 RMSDP=7.94D-06 MaxDP=8.35D-05 DE=-4.35D-07 OVMax= 1.17D-04

 Initial convergence to 1.0D-05 achieved.  Increase integral accuracy.
 Cycle   8  Pass 1  IDiag  1:
 E= -153.030428682769     Delta-E=        0.000013699108 Rises=F Damp=F
 DIIS: error= 1.60D-05 at cycle   1 NSaved=   1.
 NSaved= 1 IEnMin= 1 EnMin= -153.030428682769     IErMin= 1 ErrMin= 1.60D-05
 ErrMax= 1.60D-05  0.00D+00 EMaxC= 1.00D-01 BMatC= 2.38D-08 BMatP= 2.38D-08
 IDIUse=1 WtCom= 1.00D+00 WtEn= 0.00D+00
 Coeff-Com:  0.100D+01
 Coeff:      0.100D+01
 Gap=     0.188 Goal=   None    Shift=    0.000
 Gap=     0.034 Goal=   None    Shift=    0.000
 RMSDP=7.94D-06 MaxDP=8.35D-05 DE= 1.37D-05 OVMax= 9.03D-05

 Cycle   9  Pass 1  IDiag  1:
 E= -153.030428685667     Delta-E=       -0.000000002897 Rises=F Damp=F
 DIIS: error= 1.91D-05 at cycle   2 NSaved=   2.
 NSaved= 2 IEnMin= 2 EnMin= -153.030428685667     IErMin= 1 ErrMin= 1.60D-05
 ErrMax= 1.91D-05  0.00D+00 EMaxC= 1.00D-01 BMatC= 3.20D-08 BMatP= 2.38D-08
 IDIUse=1 WtCom= 1.00D+00 WtEn= 0.00D+00
 Coeff-Com:  0.554D+00 0.446D+00
 Coeff:      0.554D+00 0.446D+00
 Gap=     0.188 Goal=   None    Shift=    0.000
 Gap=     0.034 Goal=   None    Shift=    0.000
 RMSDP=4.61D-06 MaxDP=4.71D-05 DE=-2.90D-09 OVMax= 1.04D-04

 Cycle  10  Pass 1  IDiag  1:
 E= -153.030428686838     Delta-E=       -0.000000001171 Rises=F Damp=F
 DIIS: error= 1.75D-05 at cycle   3 NSaved=   3.
 NSaved= 3 IEnMin= 3 EnMin= -153.030428686838     IErMin= 1 ErrMin= 1.60D-05
 ErrMax= 1.75D-05  0.00D+00 EMaxC= 1.00D-01 BMatC= 2.48D-08 BMatP= 2.38D-08
 IDIUse=1 WtCom= 1.00D+00 WtEn= 0.00D+00
 Coeff-Com: -0.172D-02 0.468D+00 0.533D+00
 Coeff:     -0.172D-02 0.468D+00 0.533D+00
 Gap=     0.188 Goal=   None    Shift=    0.000
 Gap=     0.034 Goal=   None    Shift=    0.000
 RMSDP=2.54D-06 MaxDP=2.99D-05 DE=-1.17D-09 OVMax= 6.75D-05

 Cycle  11  Pass 1  IDiag  1:
 E= -153.030428692556     Delta-E=       -0.000000005718 Rises=F Damp=F
 DIIS: error= 2.98D-06 at cycle   4 NSaved=   4.
 NSaved= 4 IEnMin= 4 EnMin= -153.030428692556     IErMin= 4 ErrMin= 2.98D-06
 ErrMax= 2.98D-06  0.00D+00 EMaxC= 1.00D-01 BMatC= 4.11D-10 BMatP= 2.38D-08
 IDIUse=1 WtCom= 1.00D+00 WtEn= 0.00D+00
 Coeff-Com: -0.647D-02 0.224D+00 0.298D+00 0.485D+00
 Coeff:     -0.647D-02 0.224D+00 0.298D+00 0.485D+00
 Gap=     0.188 Goal=   None    Shift=    0.000
 Gap=     0.034 Goal=   None    Shift=    0.000
 RMSDP=4.50D-07 MaxDP=4.51D-06 DE=-5.72D-09 OVMax= 9.66D-06

 Cycle  12  Pass 1  IDiag  1:
 E= -153.030428692682     Delta-E=       -0.000000000126 Rises=F Damp=F
 DIIS: error= 1.02D-06 at cycle   5 NSaved=   5.
 NSaved= 5 IEnMin= 5 EnMin= -153.030428692682     IErMin= 5 ErrMin= 1.02D-06
 ErrMax= 1.02D-06  0.00D+00 EMaxC= 1.00D-01 BMatC= 5.25D-11 BMatP= 4.11D-10
 IDIUse=1 WtCom= 1.00D+00 WtEn= 0.00D+00
 Coeff-Com: -0.656D-02 0.201D-01 0.637D-01 0.254D+00 0.668D+00
 Coeff:     -0.656D-02 0.201D-01 0.637D-01 0.254D+00 0.668D+00
 Gap=     0.188 Goal=   None    Shift=    0.000
 Gap=     0.034 Goal=   None    Shift=    0.000
 RMSDP=1.19D-07 MaxDP=1.48D-06 DE=-1.26D-10 OVMax= 2.86D-06

 Cycle  13  Pass 1  IDiag  1:
 E= -153.030428692698     Delta-E=       -0.000000000016 Rises=F Damp=F
 DIIS: error= 2.00D-07 at cycle   6 NSaved=   6.
 NSaved= 6 IEnMin= 6 EnMin= -153.030428692698     IErMin= 6 ErrMin= 2.00D-07
 ErrMax= 2.00D-07  0.00D+00 EMaxC= 1.00D-01 BMatC= 3.00D-12 BMatP= 5.25D-11
 IDIUse=1 WtCom= 1.00D+00 WtEn= 0.00D+00
 Coeff-Com:  0.146D-02-0.521D-01-0.604D-01-0.834D-01 0.107D-01 0.118D+01
 Coeff:      0.146D-02-0.521D-01-0.604D-01-0.834D-01 0.107D-01 0.118D+01
 Gap=     0.188 Goal=   None    Shift=    0.000
 Gap=     0.034 Goal=   None    Shift=    0.000
 RMSDP=8.31D-08 MaxDP=1.15D-06 DE=-1.58D-11 OVMax= 1.60D-06

 Cycle  14  Pass 1  IDiag  1:
 E= -153.030428692700     Delta-E=       -0.000000000002 Rises=F Damp=F
 DIIS: error= 7.93D-08 at cycle   7 NSaved=   7.
 NSaved= 7 IEnMin= 7 EnMin= -153.030428692700     IErMin= 7 ErrMin= 7.93D-08
 ErrMax= 7.93D-08  0.00D+00 EMaxC= 1.00D-01 BMatC= 5.11D-13 BMatP= 3.00D-12
 IDIUse=1 WtCom= 1.00D+00 WtEn= 0.00D+00
 Coeff-Com:  0.877D-03-0.175D-01-0.247D-01-0.389D-01-0.440D-01 0.402D+00
 Coeff-Com:  0.722D+00
 Coeff:      0.877D-03-0.175D-01-0.247D-01-0.389D-01-0.440D-01 0.402D+00
 Coeff:      0.722D+00
 Gap=     0.188 Goal=   None    Shift=    0.000
 Gap=     0.034 Goal=   None    Shift=    0.000
 RMSDP=1.57D-08 MaxDP=1.97D-07 DE=-2.33D-12 OVMax= 4.73D-07

 Cycle  15  Pass 1  IDiag  1:
 E= -153.030428692700     Delta-E=        0.000000000000 Rises=F Damp=F
 DIIS: error= 1.85D-08 at cycle   8 NSaved=   8.
 NSaved= 8 IEnMin= 8 EnMin= -153.030428692700     IErMin= 8 ErrMin= 1.85D-08
 ErrMax= 1.85D-08  0.00D+00 EMaxC= 1.00D-01 BMatC= 3.65D-14 BMatP= 5.11D-13
 IDIUse=1 WtCom= 1.00D+00 WtEn= 0.00D+00
 Coeff-Com:  0.123D-03-0.528D-03-0.208D-02-0.450D-02-0.174D-01 0.160D-01
 Coeff-Com:  0.280D+00 0.728D+00
 Coeff:      0.123D-03-0.528D-03-0.208D-02-0.450D-02-0.174D-01 0.160D-01
 Coeff:      0.280D+00 0.728D+00
 Gap=     0.188 Goal=   None    Shift=    0.000
 Gap=     0.034 Goal=   None    Shift=    0.000
 RMSDP=5.11D-09 MaxDP=4.44D-08 DE=-2.84D-14 OVMax= 3.97D-08

 SCF Done:  E(UB97D) =  -153.030428693     A.U. after   15 cycles
            NFock= 15  Conv=0.51D-08     -V/T= 2.0046
 <Sx>= 0.0000 <Sy>= 0.0000 <Sz>= 0.5000 <S**2>= 0.7640 S= 0.5070
 <L.S>= 0.000000000000E+00
 KE= 1.523347562250D+02 PE=-4.840493232485D+02 EE= 1.158463660401D+02
 Annihilation of the first spin contaminant:
 S**2 before annihilation     0.7640,   after     0.7501
 Leave Link  502 at Sat Feb 16 13:47:50 2019, MaxMem=   196608000 cpu:        93.2
 (Enter /cm/shared/c3ddb/gaussian/09.d01/g09/l508.exe)
 QCSCF skips out because SCF is already converged.
 Leave Link  508 at Sat Feb 16 13:47:50 2019, MaxMem=   196608000 cpu:         0.0
 (Enter /cm/shared/c3ddb/gaussian/09.d01/g09/l701.exe)
 Compute integral first derivatives.
 ... and contract with generalized density number  0.
 R6Disp: Adding Grimme-D2 dispersion energy 1st derivatives to the gradient.
 Leave Link  701 at Sat Feb 16 13:47:51 2019, MaxMem=   196608000 cpu:         3.6
 (Enter /cm/shared/c3ddb/gaussian/09.d01/g09/l702.exe)
 L702 exits ... SP integral derivatives will be done elsewhere.
 Leave Link  702 at Sat Feb 16 13:47:51 2019, MaxMem=   196608000 cpu:         0.2
 (Enter /cm/shared/c3ddb/gaussian/09.d01/g09/l703.exe)
 Compute integral first derivatives, UseDBF=F ICtDFT=           0.
 Integral derivatives from FoFJK, PRISM(SPDF).
 Calling FoFJK, ICntrl=      2527 FMM=F ISym2X=1 I1Cent= 0 IOpClX= 0 NMat=1 NMatS=1 NMatT=0.
 FoFJK:  IHMeth= 1 ICntrl=    2527 DoSepK=F KAlg= 0 I1Cent=   0 FoldK=F
 IRaf=         0 NMat=   1 IRICut=       1 DoRegI=T DoRafI=F ISym2E= 1.
 FoFCou: FMM=F IPFlag=           0 FMFlag=      100000 FMFlg1=         800
         NFxFlg=           0 DoJE=F BraDBF=F KetDBF=F FulRan=T
         wScrn=  0.000000 ICntrl=    2527 IOpCl=  0 I1Cent=           0 NGrid=           0
         NMat0=    1 NMatS0=      1 NMatT0=    0 NMatD0=    1 NMtDS0=    0 NMtDT0=    0
 Petite list used in FoFCou.
 Leave Link  703 at Sat Feb 16 13:47:51 2019, MaxMem=   196608000 cpu:         3.8
 (Enter /cm/shared/c3ddb/gaussian/09.d01/g09/l716.exe)
 Dipole        = 1.19662726D+00 2.28803790D-02 8.17401754D-19
 ***** Axes restored to original set *****
 -------------------------------------------------------------------
 Center     Atomic                   Forces (Hartrees/Bohr)
 Number     Number              X              Y              Z
 -------------------------------------------------------------------
      1        8          -0.004637877   -0.001127654   -0.000004528
      2        6           0.006229073   -0.012035894   -0.000048333
      3        6          -0.002323395    0.012387866    0.000049746
      4        1           0.000475110   -0.000331642   -0.000001332
      5        1          -0.000229531   -0.000499902   -0.000002007
      6        1           0.000486620    0.001607226    0.000006454
 -------------------------------------------------------------------
 Cartesian Forces:  Max     0.012387866 RMS     0.004526258
 Leave Link  716 at Sat Feb 16 13:47:52 2019, MaxMem=   196608000 cpu:         0.2
 (Enter /cm/shared/c3ddb/gaussian/09.d01/g09/l103.exe)

 GradGradGradGradGradGradGradGradGradGradGradGradGradGradGradGradGradGrad
 Berny optimization.
 Using GEDIIS/GDIIS optimizer.
 FormGI is forming the generalized inverse of G from B-inverse, IUseBI=4.
 Internal  Forces:  Max     0.014346971 RMS     0.003993843
 Search for a local minimum.
 Step number   2 out of a maximum of   25
 All quantities printed in internal units (Hartrees-Bohrs-Radians)
 RMS Force = .39938D-02 SwitMx=.10000D-02 MixMth= 1
 Mixed Optimization -- RFO/linear search
 Update second derivatives using D2CorX and points    1    2
 DE= -9.04D-03 DEPred=-8.43D-03 R= 1.07D+00
 TightC=F SS=  1.41D+00  RLast= 1.98D-01 DXNew= 5.0454D-01 5.9549D-01
 Trust test= 1.07D+00 RLast= 1.98D-01 DXMaxT set to 5.05D-01
 The second derivative matrix:
                          R1        R2        R3        R4        R5
           R1           0.63366
           R2           0.07792   0.51152
           R3           0.00004  -0.00385   0.37018
           R4           0.00127   0.00054  -0.00160   0.36504
           R5           0.03388  -0.00131   0.00117  -0.00045   0.33031
           A1           0.00285   0.01130   0.00574  -0.01299  -0.00246
           A2          -0.00321   0.00516  -0.01085   0.00944   0.00360
           A3           0.00036  -0.01646   0.00512   0.00355  -0.00113
           A4           0.01485   0.01206   0.00601  -0.00820  -0.01871
           A5           0.02940  -0.02797  -0.00244   0.00080   0.00315
           A6          -0.04425   0.01590  -0.00357   0.00740   0.01557
           D1           0.00000   0.00000   0.00000   0.00000   0.00000
           D2           0.00000   0.00000   0.00000   0.00000   0.00000
           D3           0.00000   0.00000   0.00000   0.00000   0.00000
           D4           0.00000   0.00000   0.00000   0.00000   0.00000
                          A1        A2        A3        A4        A5
           A1           0.08048
           A2          -0.04399   0.07879
           A3          -0.03648  -0.03480   0.07128
           A4           0.01671  -0.01908   0.00237   0.13816
           A5          -0.00448   0.00315   0.00133  -0.07545   0.12906
           A6          -0.01224   0.01593  -0.00370  -0.06270  -0.05361
           D1           0.00000   0.00000   0.00000   0.00000   0.00000
           D2           0.00000   0.00000   0.00000   0.00000   0.00000
           D3           0.00000   0.00000   0.00000   0.00000   0.00000
           D4           0.00000   0.00000   0.00000   0.00000   0.00000
                          A6        D1        D2        D3        D4
           A6           0.11632
           D1           0.00000   0.02406
           D2           0.00000  -0.00357   0.02708
           D3           0.00000   0.01024  -0.02088   0.02834
           D4           0.00000  -0.01738   0.00978  -0.00278   0.02438
 ITU=  1  0
 Use linear search instead of GDIIS.
     Eigenvalues ---    0.01363   0.03149   0.05874   0.10387   0.11097
     Eigenvalues ---    0.16556   0.21173   0.33229   0.36569   0.37281
     Eigenvalues ---    0.48442   0.67744
 RFO step:  Lambda=-4.95768823D-05 EMin= 1.36339302D-02
 Quartic linear search produced a step of  0.20320.
 Iteration  1 RMS(Cart)=  0.01462516 RMS(Int)=  0.00010052
 Iteration  2 RMS(Cart)=  0.00010531 RMS(Int)=  0.00000000
 Iteration  3 RMS(Cart)=  0.00000000 RMS(Int)=  0.00000000
 ITry= 1 IFail=0 DXMaxC= 3.32D-02 DCOld= 1.00D+10 DXMaxT= 5.05D-01 DXLimC= 3.00D+00 Rises=F
 ClnCor:  largest displacement from symmetrization is 8.35D-09 for atom     3.
 Variable       Old X    -DE/DX   Delta X   Delta X   Delta X     New X
                                 (Linear)    (Quad)   (Total)
[...]
 Berny optimization.
 Using GEDIIS/GDIIS optimizer.
 FormGI is forming the generalized inverse of G from B-inverse, IUseBI=4.
 Internal  Forces:  Max     0.000096806 RMS     0.000025694
 Search for a local minimum.
 Step number   5 out of a maximum of   25
 All quantities printed in internal units (Hartrees-Bohrs-Radians)
 RMS Force = .25694D-04 SwitMx=.10000D-02 MixMth= 2
 Mixed Optimization -- En-DIIS/RFO-DIIS
 Swapping is turned off.
 Update second derivatives using D2CorX and points    1    2    3    4    5
 DE= -7.84D-07 DEPred=-6.46D-07 R= 1.21D+00
 Trust test= 1.21D+00 RLast= 2.16D-03 DXMaxT set to 5.05D-01
 The second derivative matrix:
                          R1        R2        R3        R4        R5
           R1           0.57536
           R2           0.11790   0.36615
           R3          -0.00508  -0.00367   0.37019
           R4          -0.00329  -0.00050  -0.00167   0.36486
           R5           0.01860   0.00271   0.00025  -0.00142   0.32659
           A1           0.00691   0.00790   0.00565  -0.01300  -0.00186
           A2          -0.00681   0.00740  -0.01087   0.00930   0.00291
           A3          -0.00010  -0.01529   0.00522   0.00370  -0.00105
           A4           0.04317   0.01663   0.00599  -0.00798  -0.01352
           A5           0.01574  -0.02812  -0.00222   0.00084   0.00088
           A6          -0.05891   0.01149  -0.00377   0.00714   0.01264
           D1           0.00000   0.00000   0.00000   0.00000   0.00000
           D2           0.00000   0.00000   0.00000   0.00000   0.00000
           D3           0.00000   0.00000   0.00000   0.00000   0.00000
           D4           0.00000   0.00000   0.00000   0.00000   0.00000
                          A1        A2        A3        A4        A5
           A1           0.08066
           A2          -0.04390   0.07851
           A3          -0.03676  -0.03460   0.07136
           A4           0.01908  -0.01996   0.00088   0.14663
           A5          -0.00570   0.00355   0.00215  -0.08142   0.13282
           A6          -0.01338   0.01641  -0.00303  -0.06521  -0.05140
           D1           0.00000   0.00000   0.00000   0.00000   0.00000
           D2           0.00000   0.00000   0.00000   0.00000   0.00000
           D3           0.00000   0.00000   0.00000   0.00000   0.00000
           D4           0.00000   0.00000   0.00000   0.00000   0.00000
                          A6        D1        D2        D3        D4
           A6           0.11662
           D1           0.00000   0.02406
           D2           0.00000  -0.00357   0.02708
           D3           0.00000   0.01024  -0.02088   0.02834
           D4           0.00000  -0.01738   0.00978  -0.00278   0.02438
 ITU=  0  1  1  1  0
     Eigenvalues ---    0.01363   0.03149   0.05874   0.10360   0.10969
     Eigenvalues ---    0.15734   0.22228   0.32708   0.33135   0.36518
     Eigenvalues ---    0.37314   0.64006
 En-DIIS/RFO-DIIS IScMMF=        0 using points:     5    4    3
 RFO step:  Lambda=-1.33405134D-08.
 NNeg= 0 NP= 3 Switch=  2.50D-03 Rises=F DC=  1.52D-05 SmlDif=  1.00D-05
 RMS Error=  0.3555166391D-04 NUsed= 3 EDIIS=F
 DidBck=F Rises=F RFO-DIIS coefs:    1.17426   -0.20136    0.02710
 Iteration  1 RMS(Cart)=  0.00005957 RMS(Int)=  0.00000001
 Iteration  2 RMS(Cart)=  0.00000001 RMS(Int)=  0.00000001
 ITry= 1 IFail=0 DXMaxC= 1.13D-04 DCOld= 1.00D+10 DXMaxT= 5.05D-01 DXLimC= 3.00D+00 Rises=F
 ClnCor:  largest displacement from symmetrization is 1.17D-08 for atom     1.
 Variable       Old X    -DE/DX   Delta X   Delta X   Delta X     New X
                                 (Linear)    (Quad)   (Total)
    R1        2.41991  -0.00010  -0.00017  -0.00002  -0.00019   2.41971
    R2        2.68968  -0.00001   0.00006  -0.00004   0.00002   2.68970
    R3        2.06306   0.00000  -0.00002   0.00002   0.00000   2.06307
    R4        2.06227   0.00000  -0.00002   0.00002   0.00000   2.06227
    R5        2.09480  -0.00002  -0.00006   0.00002  -0.00003   2.09476
    A1        2.11452   0.00000  -0.00004   0.00001  -0.00004   2.11449
    A2        2.08710   0.00000  -0.00001   0.00004   0.00003   2.08713
    A3        2.08156   0.00000   0.00005  -0.00004   0.00001   2.08157
    A4        2.14530   0.00000  -0.00002   0.00006   0.00004   2.14534
    A5        2.09303   0.00000   0.00007  -0.00002   0.00005   2.09309
    A6        2.04485   0.00000  -0.00005  -0.00004  -0.00009   2.04476
    D1        3.14159   0.00000   0.00000   0.00000   0.00000   3.14159
    D2        0.00000   0.00000   0.00000   0.00000   0.00000   0.00000
    D3        0.00000   0.00000   0.00000   0.00000   0.00000   0.00000
    D4        3.14159   0.00000   0.00000   0.00000   0.00000   3.14159
         Item               Value     Threshold  Converged?
 Maximum Force            0.000097     0.000450     YES
 RMS     Force            0.000026     0.000300     YES
 Maximum Displacement     0.000113     0.001800     YES
 RMS     Displacement     0.000060     0.001200     YES
 Predicted change in Energy=-9.452440D-09
 Optimization completed.
    -- Stationary point found.
                           ----------------------------
                           !   Optimized Parameters   !
                           ! (Angstroms and Degrees)  !
 --------------------------                            --------------------------
 ! Name  Definition              Value          Derivative Info.                !
 --------------------------------------------------------------------------------
 ! R1    R(1,3)                  1.2806         -DE/DX =   -0.0001              !
 ! R2    R(2,3)                  1.4233         -DE/DX =    0.0                 !
 ! R3    R(2,4)                  1.0917         -DE/DX =    0.0                 !
 ! R4    R(2,5)                  1.0913         -DE/DX =    0.0                 !
 ! R5    R(3,6)                  1.1085         -DE/DX =    0.0                 !
 ! A1    A(3,2,4)              121.1533         -DE/DX =    0.0                 !
 ! A2    A(3,2,5)              119.582          -DE/DX =    0.0                 !
 ! A3    A(4,2,5)              119.2646         -DE/DX =    0.0                 !
 ! A4    A(1,3,2)              122.9168         -DE/DX =    0.0                 !
 ! A5    A(1,3,6)              119.922          -DE/DX =    0.0                 !
 ! A6    A(2,3,6)              117.1613         -DE/DX =    0.0                 !
 ! D1    D(4,2,3,1)            180.0            -DE/DX =    0.0                 !
 ! D2    D(4,2,3,6)              0.0            -DE/DX =    0.0                 !
 ! D3    D(5,2,3,1)              0.0            -DE/DX =    0.0                 !
 ! D4    D(5,2,3,6)            180.0            -DE/DX =    0.0                 !
 --------------------------------------------------------------------------------
 Lowest energy point so far.  Saving SCF results.
 GradGradGradGradGradGradGradGradGradGradGradGradGradGradGradGradGradGrad

 Largest change from initial coordinates is atom    4       0.094 Angstoms.
 Leave Link  103 at Sat Feb 16 13:48:46 2019, MaxMem=   196608000 cpu:        10.0
 (Enter /cm/shared/c3ddb/gaussian/09.d01/g09/l202.exe)
                          Input orientation:                          
 ---------------------------------------------------------------------
 Center     Atomic      Atomic             Coordinates (Angstroms)
 Number     Number       Type             X           Y           Z
 ---------------------------------------------------------------------
      1          8           0        1.161865    0.018168   -0.035977
      2          6           0        3.190741   -1.218857   -0.040944
      3          6           0        2.442151   -0.008309   -0.036083
      4          1           0        4.282411   -1.207831   -0.040900
      5          1           0        2.666903   -2.176213   -0.044789
      6          1           0        3.014849    0.940803   -0.032271
 ---------------------------------------------------------------------
                    Distance matrix (angstroms):
                    1          2          3          4          5
     1  O    0.000000
     2  C    2.376256   0.000000
     3  C    1.280560   1.423318   0.000000
     4  H    3.352746   1.091726   2.196687   0.000000
     5  H    2.660926   1.091307   2.179540   1.883519   0.000000
     6  H    2.069981   2.166829   1.108519   2.494678   3.136402
                    6
     6  H    0.000000
 Stoichiometry    C2H3O(2)
 Framework group  CS[SG(C2H3O)]
 Deg. of freedom     9
 Full point group                 CS      NOp   2
 RotChk:  IX=0 Diff= 2.53D-16
 Largest Abelian subgroup         CS      NOp   2
 Largest concise Abelian subgroup C1      NOp   1
                         Standard orientation:                         
 ---------------------------------------------------------------------
 Center     Atomic      Atomic             Coordinates (Angstroms)
 Number     Number       Type             X           Y           Z
 ---------------------------------------------------------------------
      1          8           0       -1.224523    0.058741    0.000000
      2          6           0        1.089196   -0.482827    0.000000
      3          6           0        0.000000    0.433409    0.000000
      4          1           0        2.122825   -0.131434    0.000000
      5          1           0        0.890533   -1.555899    0.000000
      6          1           0        0.247654    1.513909    0.000000
 ---------------------------------------------------------------------
 Rotational constants (GHZ):     65.4072769     11.1007363      9.4901031
 Leave Link  202 at Sat Feb 16 13:48:46 2019, MaxMem=   196608000 cpu:         0.6
 (Enter /cm/shared/c3ddb/gaussian/09.d01/g09/l601.exe)
 Copying SCF densities to generalized density rwf, IOpCl= 1 IROHF=0.

 **********************************************************************

            Population analysis using the SCF density.

 **********************************************************************

 Orbital symmetries:
 Alpha Orbitals:
       Occupied  (A') (A') (A') (A') (A') (A') (A') (A') (A") (A')
                 (A") (A')
       Virtual   (A") (A') (A') (A') (A') (A') (A") (A') (A") (A')
                 (A') (A') (A') (A') (A') (A') (A") (A') (A') (A')
                 (A')
 Beta  Orbitals:
       Occupied  (A') (A') (A') (A') (A') (A') (A') (A') (A') (A")
                 (A')
       Virtual   (A") (A") (A') (A') (A') (A') (A') (A") (A') (A")
                 (A') (A') (A') (A') (A') (A') (A') (A") (A') (A')
                 (A') (A')
 The electronic state is 2-A".
 Alpha  occ. eigenvalues --  -18.77833  -9.99776  -9.95834  -0.95926  -0.70211
 Alpha  occ. eigenvalues --   -0.53080  -0.44885  -0.40125  -0.36045  -0.35985
 Alpha  occ. eigenvalues --   -0.23218  -0.21864
 Alpha virt. eigenvalues --   -0.03399   0.08291   0.09656   0.13461   0.23227
 Alpha virt. eigenvalues --    0.26364   0.48113   0.50854   0.55812   0.58122
 Alpha virt. eigenvalues --    0.59778   0.60613   0.77541   0.83046   0.86337
 Alpha virt. eigenvalues --    0.88568   0.91214   1.00376   1.05546   1.15577
 Alpha virt. eigenvalues --    1.64481
  Beta  occ. eigenvalues --  -18.77246  -9.99846  -9.95530  -0.94143  -0.67594
  Beta  occ. eigenvalues --   -0.52217  -0.43965  -0.39055  -0.34929  -0.33341
  Beta  occ. eigenvalues --   -0.20445
  Beta virt. eigenvalues --   -0.16895  -0.00752   0.09080   0.10470   0.14010
  Beta virt. eigenvalues --    0.23618   0.26966   0.49547   0.51515   0.56711
  Beta virt. eigenvalues --    0.58330   0.59865   0.60908   0.78264   0.83274
  Beta virt. eigenvalues --    0.87611   0.89309   0.94261   1.01108   1.06213
  Beta virt. eigenvalues --    1.15605   1.66004
          Condensed to atoms (all electrons):
               1          2          3          4          5          6
     1  O    8.106959  -0.088073   0.418643   0.003457   0.002233  -0.061634
     2  C   -0.088073   5.481203   0.314789   0.313196   0.346831  -0.122817
     3  C    0.418643   0.314789   4.794862  -0.007750  -0.024102   0.337616
     4  H    0.003457   0.313196  -0.007750   0.553641  -0.027527   0.005529
     5  H    0.002233   0.346831  -0.024102  -0.027527   0.519353   0.005315
     6  H   -0.061634  -0.122817   0.337616   0.005529   0.005315   0.712571
          Atomic-Atomic Spin Densities.
               1          2          3          4          5          6
     1  O    0.463928  -0.017253  -0.035773  -0.000117   0.000430   0.000944
     2  C   -0.017253   0.848258   0.008634  -0.003784  -0.007395  -0.000154
     3  C   -0.035773   0.008634  -0.133414  -0.000945  -0.000479   0.009137
     4  H   -0.000117  -0.003784  -0.000945  -0.041307   0.002279  -0.000091
     5  H    0.000430  -0.007395  -0.000479   0.002279  -0.039044  -0.000091
     6  H    0.000944  -0.000154   0.009137  -0.000091  -0.000091  -0.009109
 Mulliken charges and spin densities:
               1          2
     1  O   -0.381584   0.412159
     2  C   -0.245129   0.828307
     3  C    0.165942  -0.152840
     4  H    0.159454  -0.043964
     5  H    0.177896  -0.044299
     6  H    0.123420   0.000636
 Sum of Mulliken charges =   0.00000   1.00000
 Mulliken charges and spin densities with hydrogens summed into heavy atoms:
               1          2
     1  O   -0.381584   0.412159
     2  C    0.092222   0.740044
     3  C    0.289362  -0.152204
 Electronic spatial extent (au):  <R**2>=            153.2332
 Charge=              0.0000 electrons
 Dipole moment (field-independent basis, Debye):
    X=              3.0380    Y=              0.0609    Z=              0.0000  Tot=              3.0386
 Quadrupole moment (field-independent basis, Debye-Ang):
   XX=            -19.3675   YY=            -16.1643   ZZ=            -18.0324
   XY=             -0.3090   XZ=              0.0000   YZ=              0.0000
 Traceless Quadrupole moment (field-independent basis, Debye-Ang):
   XX=             -1.5128   YY=              1.6905   ZZ=             -0.1777
   XY=             -0.3090   XZ=              0.0000   YZ=              0.0000
 Octapole moment (field-independent basis, Debye-Ang**2):
  XXX=              4.1068  YYY=             -1.0438  ZZZ=              0.0000  XYY=             -0.3116
  XXY=             -0.3892  XXZ=              0.0000  XZZ=             -2.4489  YZZ=              0.2266
  YYZ=              0.0000  XYZ=              0.0000
 Hexadecapole moment (field-independent basis, Debye-Ang**3):
 XXXX=           -120.6039 YYYY=            -44.3923 ZZZZ=            -16.1596 XXXY=             13.2606
 XXXZ=              0.0000 YYYX=             10.5938 YYYZ=              0.0000 ZZZX=              0.0000
 ZZZY=              0.0000 XXYY=            -29.4538 XXZZ=            -23.7783 YYZZ=            -11.3953
 XXYZ=              0.0000 YYXZ=              0.0000 ZZXY=              4.2476
 N-N= 6.251706903556D+01 E-N=-4.833733682652D+02  KE= 1.522816287120D+02
 Symmetry A'   KE= 1.474376849343D+02
 Symmetry A"   KE= 4.843943777662D+00
                          Isotropic Fermi Contact Couplings
        Atom                 a.u.       MegaHertz       Gauss      10(-4) cm-1
     1  O(17)              0.07433     -45.06152     -16.07907     -15.03090
     2  C(13)              0.12255     137.76600      49.15833      45.95379
     3  C(13)             -0.04768     -53.59598     -19.12438     -17.87770
     4  H(1)              -0.01352     -60.41707     -21.55831     -20.15297
     5  H(1)              -0.01351     -60.40684     -21.55466     -20.14955
     6  H(1)              -0.00016      -0.70283      -0.25079      -0.23444
 --------------------------------------------------------
       Center         ----  Spin Dipole Couplings  ----
                      3XX-RR        3YY-RR        3ZZ-RR
 --------------------------------------------------------
     1   Atom       -0.732462     -0.743942      1.476404
     2   Atom       -0.387718     -0.394017      0.781736
     3   Atom        0.071910      0.026174     -0.098084
     4   Atom        0.054860     -0.042903     -0.011956
     5   Atom       -0.047470      0.060512     -0.013042
     6   Atom        0.002659      0.006332     -0.008991
 --------------------------------------------------------
                        XY            XZ            YZ
 --------------------------------------------------------
     1   Atom        0.007006      0.000000      0.000000
     2   Atom        0.004268      0.000000      0.000000
     3   Atom       -0.003402      0.000000      0.000000
     4   Atom        0.036122      0.000000      0.000000
     5   Atom        0.018148      0.000000      0.000000
     6   Atom       -0.005816      0.000000      0.000000
 --------------------------------------------------------


 ---------------------------------------------------------------------------------
              Anisotropic Spin Dipole Couplings in Principal Axis System
 ---------------------------------------------------------------------------------

       Atom             a.u.   MegaHertz   Gauss  10(-4) cm-1        Axes

              Baa    -0.7473    54.071    19.294    18.036 -0.4279  0.9038  0.0000
     1 O(17)  Bbb    -0.7291    52.760    18.826    17.599  0.9038  0.4279  0.0000
              Bcc     1.4764  -106.832   -38.120   -35.635  0.0000  0.0000  1.0000
 
              Baa    -0.3962   -53.163   -18.970   -17.733 -0.4507  0.8927  0.0000
     2 C(13)  Bbb    -0.3856   -51.739   -18.462   -17.258  0.8927  0.4507  0.0000
              Bcc     0.7817   104.901    37.431    34.991  0.0000  0.0000  1.0000
 
              Baa    -0.0981   -13.162    -4.696    -4.390  0.0000  0.0000  1.0000
     3 C(13)  Bbb     0.0259     3.479     1.241     1.160  0.0738  0.9973  0.0000
              Bcc     0.0722     9.683     3.455     3.230  0.9973 -0.0738  0.0000
 
              Baa    -0.0548   -29.240   -10.433    -9.753 -0.3129  0.9498  0.0000
     4 H(1)   Bbb    -0.0120    -6.379    -2.276    -2.128  0.0000  0.0000  1.0000
              Bcc     0.0668    35.619    12.710    11.881  0.9498  0.3129  0.0000
 
              Baa    -0.0504   -26.912    -9.603    -8.977  0.9869 -0.1614  0.0000
     5 H(1)   Bbb    -0.0130    -6.958    -2.483    -2.321  0.0000  0.0000  1.0000
              Bcc     0.0635    33.870    12.086    11.298  0.1614  0.9869  0.0000
 
              Baa    -0.0090    -4.797    -1.712    -1.600  0.0000  0.0000  1.0000
     6 H(1)   Bbb    -0.0016    -0.855    -0.305    -0.285  0.8066  0.5911  0.0000
              Bcc     0.0106     5.653     2.017     1.886 -0.5911  0.8066  0.0000
 

 ---------------------------------------------------------------------------------

 No NMR shielding tensors so no spin-rotation constants.
 Leave Link  601 at Sat Feb 16 13:48:47 2019, MaxMem=   196608000 cpu:         6.6
 (Enter /cm/shared/c3ddb/gaussian/09.d01/g09/l9999.exe)
 1\1\GINC-NODE028\FOpt\UB97D\6-31G\C2H3O1(2)\DUMINDA\16-Feb-2019\0\\#P 
 opt=calcfc ub97d/6-31g scf=xqc\\name\\0,2\O,1.1618653444,0.0181681031,
 -0.0359765419\C,3.1907405621,-1.2188569477,-0.040944076\C,2.4421511542
 ,-0.0083094638,-0.0360828646\H,4.2824109062,-1.20783145,-0.0408997977\
 H,2.6669034251,-2.1762130998,-0.0447885467\H,3.0148494779,0.9408034882
 ,-0.0322714961\\Version=AS64L-G09RevD.01\State=2-A"\HF=-153.0307324\S2
 =0.764045\S2-1=0.\S2A=0.750076\RMSD=3.226e-09\RMSF=3.085e-05\Dipole=1.
 142931,-0.3504852,-0.0014074\Quadrupole=-1.0287829,1.1608655,-0.132082
 6,0.5215885,0.0020945,0.0051922\PG=CS [SG(C2H3O1)]\\@


 ALMOST ALL THE CHEMICAL PROCESSES WHICH OCCUR IN NATURE,
 WHETHER IN ANIMAL OR VEGETABLE ORGANISMS,
 OR IN THE NON-LIVING SURFACE OF THE EARTH ... 
 TAKE PLACE BETWEEN SUBSTANCES IN SOLUTION

                                    -- W. OSTWALD, 1890
 Job cpu time:       0 days  0 hours 10 minutes 54.0 seconds.
 File lengths (MBytes):  RWF=      5 Int=      0 D2E=      0 Chk=      1 Scr=      1
 Normal termination of Gaussian 09 at Sat Feb 16 13:48:47 2019.
