 Entering Gaussian System, Link 0=g09
 Initial command:
 /cm/shared/c3ddb/gaussian/09.d01/g09/l1.exe "/scratch/users/duminda/g09/a1700-7322614/Gau-52248.inp" -scrdir="/scratch/users/duminda/g09/a1700-7322614/"
 Entering Link 1 = /cm/shared/c3ddb/gaussian/09.d01/g09/l1.exe PID=     52249.
  
 Copyright (c) 1988,1990,1992,1993,1995,1998,2003,2009,2013,
            Gaussian, Inc.  All Rights Reserved.
  
 This is part of the Gaussian(R) 09 program.  It is based on
 the Gaussian(R) 03 system (copyright 2003, Gaussian, Inc.),
 the Gaussian(R) 98 system (copyright 1998, Gaussian, Inc.),
 the Gaussian(R) 94 system (copyright 1995, Gaussian, Inc.),
 the Gaussian 92(TM) system (copyright 1992, Gaussian, Inc.),
 the Gaussian 90(TM) system (copyright 1990, Gaussian, Inc.),
 the Gaussian 88(TM) system (copyright 1988, Gaussian, Inc.),
 the Gaussian 86(TM) system (copyright 1986, Carnegie Mellon
 University), and the Gaussian 82(TM) system (copyright 1983,
 Carnegie Mellon University). Gaussian is a federally registered
 trademark of Gaussian, Inc.
  
 This software contains proprietary and confidential information,
 including trade secrets, belonging to Gaussian, Inc.
  
 This software is provided under written license and may be
 used, copied, transmitted, or stored only in accord with that
 written license.
  
 The following legend is applicable only to US Government
 contracts under FAR:
  
                    RESTRICTED RIGHTS LEGEND
  
 Use, reproduction and disclosure by the US Government is
 subject to restrictions as set forth in subparagraphs (a)
 and (c) of the Commercial Computer Software - Restricted
 Rights clause in FAR 52.227-19.
  
 Gaussian, Inc.
 340 Quinnipiac St., Bldg. 40, Wallingford CT 06492
  
  
 ---------------------------------------------------------------
 Warning -- This program may not be used in any manner that
 competes with the business of Gaussian, Inc. or will provide
 assistance to any competitor of Gaussian, Inc.  The licensee
 of this program is prohibited from giving any competitor of
 Gaussian, Inc. access to this program.  By using this program,
 the user acknowledges that Gaussian, Inc. is engaged in the
 business of creating and licensing software in the field of
 computational chemistry and represents and warrants to the
 licensee that it is not a competitor of Gaussian, Inc. and that
 it will not use this program in any manner prohibited above.
 ---------------------------------------------------------------
  

 Cite this work as:
 Gaussian 09, Revision D.01,
 M. J. Frisch, G. W. Trucks, H. B. Schlegel, G. E. Scuseria, 
 M. A. Robb, J. R. Cheeseman, G. Scalmani, V. Barone, B. Mennucci, 
 G. A. Petersson, H. Nakatsuji, M. Caricato, X. Li, H. P. Hratchian, 
 A. F. Izmaylov, J. Bloino, G. Zheng, J. L. Sonnenberg, M. Hada, 
 M. Ehara, K. Toyota, R. Fukuda, J. Hasegawa, M. Ishida, T. Nakajima, 
 Y. Honda, O. Kitao, H. Nakai, T. Vreven, J. A. Montgomery, Jr., 
 J. E. Peralta, F. Ogliaro, M. Bearpark, J. J. Heyd, E. Brothers, 
 K. N. Kudin, V. N. Staroverov, T. Keith, R. Kobayashi, J. Normand, 
 K. Raghavachari, A. Rendell, J. C. Burant, S. S. Iyengar, J. Tomasi, 
 M. Cossi, N. Rega, J. M. Millam, M. Klene, J. E. Knox, J. B. Cross, 
 V. Bakken, C. Adamo, J. Jaramillo, R. Gomperts, R. E. Stratmann, 
 O. Yazyev, A. J. Austin, R. Cammi, C. Pomelli, J. W. Ochterski, 
 R. L. Martin, K. Morokuma, V. G. Zakrzewski, G. A. Voth, 
 P. Salvador, J. J. Dannenberg, S. Dapprich, A. D. Daniels, 
 O. Farkas, J. B. Foresman, J. V. Ortiz, J. Cioslowski, 
 and D. J. Fox, Gaussian, Inc., Wallingford CT, 2013.
 
 ******************************************
 Gaussian 09:  AS64L-G09RevD.01 24-Apr-2013
                16-Feb-2019 
 ******************************************
 %chk=check.chk
 %mem=1500mb
 %nproc=8
 Will use up to    8 processors via shared memory.
 --------------------------------------------
 #P opt=(noeigentest, calcfc) cbs-qb3 scf=xqc
 --------------------------------------------
 1/10=4,11=1,14=-1,18=20,19=15,26=3,38=1/1,3;
 2/9=110,12=2,17=6,18=5,40=1/2;
 3/5=4,6=6,7=700,11=2,16=1,25=1,30=1,71=2,74=-5,140=1/1,2,3;
 4//1;
 5/5=2,8=3,13=1,38=5/2,8;
 8/6=4,10=90,11=11/1;
 11/6=1,8=1,9=11,15=111,16=1/1,2,10;
 10/6=1,13=1/2;
 6/7=2,8=2,9=2,10=2,28=1/1;
 7/10=1,18=20,25=1/1,2,3,16;
 1/10=4,11=1,14=-1,18=20,19=15,26=3/3(2);
 2/9=110/2;
 99//99;
 2/9=110/2;
 3/5=4,6=6,7=700,11=2,16=1,25=1,30=1,71=1,74=-5/1,2,3;
 4/5=5,16=3,69=1/1;
 5/5=2,8=3,13=1,38=5/2,8;
 7//1,2,3,16;
 1/11=1,14=-1,18=20,19=15,26=3/3(-5);
 2/9=110/2;
 6/7=2,8=2,9=2,10=2,19=2,28=1/1;
 99/9=1/99;
 Leave Link    1 at Sat Feb 16 14:28:22 2019, MaxMem=   196608000 cpu:         0.7
 (Enter /cm/shared/c3ddb/gaussian/09.d01/g09/l101.exe)
 ----
 name
 ----
 Symbolic Z-matrix:
 Charge =  0 Multiplicity = 1
 N                    -0.64629   0.01133  -0.33836 
 N                     0.63049   0.02      0.36658 
 H                    -1.14764  -0.82617   0.01047 
 H                    -1.21864   0.81482  -0.01082 
 H                     0.53239   0.58031   1.23658 
 H                     1.27093   0.57456  -0.23069 
 
 NAtoms=      6 NQM=        6 NQMF=       0 NMMI=      0 NMMIF=      0
                NMic=       0 NMicF=      0.
                    Isotopes and Nuclear Properties:
 (Nuclear quadrupole moments (NQMom) in fm**2, nuclear magnetic moments (NMagM)
  in nuclear magnetons)

  Atom         1           2           3           4           5           6
 IAtWgt=          14          14           1           1           1           1
 AtmWgt=  14.0030740  14.0030740   1.0078250   1.0078250   1.0078250   1.0078250
 NucSpn=           2           2           1           1           1           1
 AtZEff=   0.0000000   0.0000000   0.0000000   0.0000000   0.0000000   0.0000000
 NQMom=    2.0440000   2.0440000   0.0000000   0.0000000   0.0000000   0.0000000
 NMagM=    0.4037610   0.4037610   2.7928460   2.7928460   2.7928460   2.7928460
 AtZNuc=   7.0000000   7.0000000   1.0000000   1.0000000   1.0000000   1.0000000
 Leave Link  101 at Sat Feb 16 14:28:22 2019, MaxMem=   196608000 cpu:         0.9
 (Enter /cm/shared/c3ddb/gaussian/09.d01/g09/l103.exe)

 GradGradGradGradGradGradGradGradGradGradGradGradGradGradGradGradGradGrad
 Berny optimization.
 Initialization pass.
                           ----------------------------
                           !    Initial Parameters    !
                           ! (Angstroms and Degrees)  !
 --------------------------                            --------------------------
 ! Name  Definition              Value          Derivative Info.                !
 --------------------------------------------------------------------------------
 ! R1    R(1,2)                  1.4585         calculate D2E/DX2 analytically  !
 ! R2    R(1,3)                  1.0366         calculate D2E/DX2 analytically  !
 ! R3    R(1,4)                  1.0395         calculate D2E/DX2 analytically  !
 ! R4    R(2,5)                  1.0395         calculate D2E/DX2 analytically  !
 ! R5    R(2,6)                  1.0366         calculate D2E/DX2 analytically  !
 ! A1    A(2,1,3)              105.4            calculate D2E/DX2 analytically  !
 ! A2    A(2,1,4)              108.9734         calculate D2E/DX2 analytically  !
 ! A3    A(3,1,4)              104.6068         calculate D2E/DX2 analytically  !
 ! A4    A(1,2,5)              108.9734         calculate D2E/DX2 analytically  !
 ! A5    A(1,2,6)              105.3999         calculate D2E/DX2 analytically  !
 ! A6    A(5,2,6)              104.6068         calculate D2E/DX2 analytically  !
 ! D1    D(3,1,2,5)            -91.3749         calculate D2E/DX2 analytically  !
 ! D2    D(3,1,2,6)            156.829          calculate D2E/DX2 analytically  !
 ! D3    D(4,1,2,5)             20.4212         calculate D2E/DX2 analytically  !
 ! D4    D(4,1,2,6)            -91.3749         calculate D2E/DX2 analytically  !
 --------------------------------------------------------------------------------
 Trust Radius=3.00D-01 FncErr=1.00D-07 GrdErr=1.00D-06
 Number of steps in this run=     25 maximum allowed number of steps=    100.
 GradGradGradGradGradGradGradGradGradGradGradGradGradGradGradGradGradGrad

 Leave Link  103 at Sat Feb 16 14:28:22 2019, MaxMem=   196608000 cpu:         0.1
 (Enter /cm/shared/c3ddb/gaussian/09.d01/g09/l202.exe)
                          Input orientation:                          
 ---------------------------------------------------------------------
 Center     Atomic      Atomic             Coordinates (Angstroms)
 Number     Number       Type             X           Y           Z
 ---------------------------------------------------------------------
      1          7           0       -0.646288    0.011333   -0.338357
      2          7           0        0.630486    0.019995    0.366582
      3          1           0       -1.147642   -0.826166    0.010474
      4          1           0       -1.218637    0.814823   -0.010816
      5          1           0        0.532392    0.580305    1.236578
      6          1           0        1.270928    0.574563   -0.230688
 ---------------------------------------------------------------------
                    Distance matrix (angstroms):
                    1          2          3          4          5
     1  N    0.000000
     2  N    1.458481   0.000000
     3  H    1.036554   2.001135   0.000000
     4  H    1.039453   2.047788   1.642662   0.000000
     5  H    2.047788   1.039453   2.510778   2.162659   0.000000
     6  H    2.001134   1.036553   2.805295   2.510777   1.642662
                    6
     6  H    0.000000
 Stoichiometry    H4N2
 Framework group  C1[X(H4N2)]
 Deg. of freedom    12
 Full point group                 C1      NOp   1
 Largest Abelian subgroup         C1      NOp   1
 Largest concise Abelian subgroup C1      NOp   1
                         Standard orientation:                         
 ---------------------------------------------------------------------
 Center     Atomic      Atomic             Coordinates (Angstroms)
 Number     Number       Type             X           Y           Z
 ---------------------------------------------------------------------
      1          7           0        0.720170   -0.085190    0.114658
      2          7           0       -0.720170   -0.085191   -0.114657
      3          1           0        1.145932   -0.285891   -0.808862
      4          1           0        1.026527    0.882222    0.339873
      5          1           0       -1.026527    0.882220   -0.339880
      6          1           0       -1.145932   -0.285885    0.808864
 ---------------------------------------------------------------------
 Rotational constants (GHZ):    135.2226216     23.8207584     23.7661727
 Leave Link  202 at Sat Feb 16 14:28:22 2019, MaxMem=   196608000 cpu:         0.3
 (Enter /cm/shared/c3ddb/gaussian/09.d01/g09/l301.exe)
 Standard basis: 6-311G(2d,d,p) (5D, 7F)
 Ernie: Thresh=  0.10000D-02 Tol=  0.10000D-05 Strict=F.
 There are    62 symmetry adapted cartesian basis functions of A   symmetry.
 There are    60 symmetry adapted basis functions of A   symmetry.
    60 basis functions,    96 primitive gaussians,    62 cartesian basis functions
     9 alpha electrons        9 beta electrons
       nuclear repulsion energy        40.8721471439 Hartrees.
 IExCor=  402 DFT=T Ex+Corr=B3LYP ExCW=0 ScaHFX=  0.200000
 ScaDFX=  0.800000  0.720000  1.000000  0.810000 ScalE2=  1.000000  1.000000
 IRadAn=      0 IRanWt=     -1 IRanGd=            0 ICorTp=0 IEmpDi=  4
 NAtoms=    6 NActive=    6 NUniq=    6 SFac= 1.00D+00 NAtFMM=   60 NAOKFM=F Big=F
 Integral buffers will be    131072 words long.
 Raffenetti 2 integral format.
 Two-electron integral symmetry is turned on.
 Leave Link  301 at Sat Feb 16 14:28:23 2019, MaxMem=   196608000 cpu:         0.9
 (Enter /cm/shared/c3ddb/gaussian/09.d01/g09/l302.exe)
 NPDir=0 NMtPBC=     1 NCelOv=     1 NCel=       1 NClECP=     1 NCelD=      1
         NCelK=      1 NCelE2=     1 NClLst=     1 CellRange=     0.0.
 One-electron integrals computed using PRISM.
 NBasis=    60 RedAO= T EigKep=  5.38D-03  NBF=    60
 NBsUse=    60 1.00D-06 EigRej= -1.00D+00 NBFU=    60
 Precomputing XC quadrature grid using
 IXCGrd= 4 IRadAn=           0 IRanWt=          -1 IRanGd=           0 AccXCQ= 0.00D+00.
 Generated NRdTot=       0 NPtTot=           0 NUsed=           0 NTot=          32
 NSgBfM=    62    62    62    62    62 MxSgAt=     6 MxSgA2=     6.
 Leave Link  302 at Sat Feb 16 14:28:23 2019, MaxMem=   196608000 cpu:         4.1
 (Enter /cm/shared/c3ddb/gaussian/09.d01/g09/l303.exe)
 DipDrv:  MaxL=1.
 Leave Link  303 at Sat Feb 16 14:28:24 2019, MaxMem=   196608000 cpu:         1.0
 (Enter /cm/shared/c3ddb/gaussian/09.d01/g09/l401.exe)
 ExpMin= 1.03D-01 ExpMax= 6.29D+03 ExpMxC= 9.49D+02 IAcc=1 IRadAn=         1 AccDes= 0.00D+00
 Harris functional with IExCor=  402 and IRadAn=       1 diagonalized for initial guess.
 HarFok:  IExCor=  402 AccDes= 0.00D+00 IRadAn=         1 IDoV= 1 UseB2=F ITyADJ=14
 ICtDFT=  3500011 ScaDFX=  1.000000  1.000000  1.000000  1.000000
 FoFCou: FMM=F IPFlag=           0 FMFlag=      100000 FMFlg1=           0
         NFxFlg=           0 DoJE=T BraDBF=F KetDBF=T FulRan=T
         wScrn=  0.000000 ICntrl=     500 IOpCl=  0 I1Cent=   200000004 NGrid=           0
         NMat0=    1 NMatS0=      1 NMatT0=    0 NMatD0=    1 NMtDS0=    0 NMtDT0=    0
 Petite list used in FoFCou.
 Harris En= -111.909554371595    
 JPrj=0 DoOrth=F DoCkMO=F.
 Leave Link  401 at Sat Feb 16 14:28:24 2019, MaxMem=   196608000 cpu:         5.8
 (Enter /cm/shared/c3ddb/gaussian/09.d01/g09/l502.exe)
 Closed shell SCF:
 Using DIIS extrapolation, IDIIS=  1040.
 Integral symmetry usage will be decided dynamically.
 Keep R1 ints in memory in canonical form, NReq=2575347.
 IVT=       18440 IEndB=       18440 NGot=   196608000 MDV=   194914196
 LenX=   194914196 LenY=   194909911
 Requested convergence on RMS density matrix=1.00D-08 within  64 cycles.
 Requested convergence on MAX density matrix=1.00D-06.
 Requested convergence on             energy=1.00D-06.
 No special actions if energy rises.
 FoFCou: FMM=F IPFlag=           0 FMFlag=           0 FMFlg1=           0
         NFxFlg=           0 DoJE=F BraDBF=F KetDBF=F FulRan=T
         wScrn=  0.000000 ICntrl=     600 IOpCl=  0 I1Cent=           0 NGrid=           0
         NMat0=    1 NMatS0=   1830 NMatT0=    0 NMatD0=    1 NMtDS0=    0 NMtDT0=    0
 Symmetry not used in FoFCou.
 Integral accuracy reduced to 1.0D-05 until final iterations.

 Cycle   1  Pass 0  IDiag  1:
 E= -111.825673972896    
 DIIS: error= 3.97D-02 at cycle   1 NSaved=   1.
 NSaved= 1 IEnMin= 1 EnMin= -111.825673972896     IErMin= 1 ErrMin= 3.97D-02
 ErrMax= 3.97D-02  0.00D+00 EMaxC= 1.00D-01 BMatC= 9.51D-02 BMatP= 9.51D-02
 IDIUse=3 WtCom= 6.03D-01 WtEn= 3.97D-01
 Coeff-Com:  0.100D+01
 Coeff-En:   0.100D+01
 Coeff:      0.100D+01
 Gap=     0.190 Goal=   None    Shift=    0.000
 GapD=    0.190 DampG=1.000 DampE=0.500 DampFc=0.5000 IDamp=-1.
 Damping current iteration by 5.00D-01
 RMSDP=7.15D-03 MaxDP=8.44D-02              OVMax= 1.46D-01

 Cycle   2  Pass 0  IDiag  1:
 E= -111.854072396267     Delta-E=       -0.028398423371 Rises=F Damp=T
 DIIS: error= 9.49D-03 at cycle   2 NSaved=   2.
 NSaved= 2 IEnMin= 2 EnMin= -111.854072396267     IErMin= 2 ErrMin= 9.49D-03
 ErrMax= 9.49D-03  0.00D+00 EMaxC= 1.00D-01 BMatC= 6.04D-03 BMatP= 9.51D-02
 IDIUse=3 WtCom= 9.05D-01 WtEn= 9.49D-02
 Coeff-Com:  0.113D+00 0.887D+00
 Coeff-En:   0.235D+00 0.765D+00
 Coeff:      0.125D+00 0.875D+00
 Gap=     0.277 Goal=   None    Shift=    0.000
 RMSDP=1.08D-03 MaxDP=1.09D-02 DE=-2.84D-02 OVMax= 9.01D-02

 Cycle   3  Pass 0  IDiag  1:
 E= -111.898805034758     Delta-E=       -0.044732638491 Rises=F Damp=F
 DIIS: error= 4.14D-03 at cycle   3 NSaved=   3.
 NSaved= 3 IEnMin= 3 EnMin= -111.898805034758     IErMin= 3 ErrMin= 4.14D-03
 ErrMax= 4.14D-03  0.00D+00 EMaxC= 1.00D-01 BMatC= 7.82D-04 BMatP= 6.04D-03
 IDIUse=3 WtCom= 9.59D-01 WtEn= 4.14D-02
 Coeff-Com: -0.794D-02 0.235D+00 0.773D+00
 Coeff-En:   0.000D+00 0.000D+00 0.100D+01
 Coeff:     -0.761D-02 0.226D+00 0.782D+00
 Gap=     0.278 Goal=   None    Shift=    0.000
 RMSDP=3.59D-04 MaxDP=3.70D-03 DE=-4.47D-02 OVMax= 6.87D-03

 Cycle   4  Pass 0  IDiag  1:
 E= -111.899412497643     Delta-E=       -0.000607462886 Rises=F Damp=F
 DIIS: error= 6.89D-04 at cycle   4 NSaved=   4.
 NSaved= 4 IEnMin= 4 EnMin= -111.899412497643     IErMin= 4 ErrMin= 6.89D-04
 ErrMax= 6.89D-04  0.00D+00 EMaxC= 1.00D-01 BMatC= 2.42D-05 BMatP= 7.82D-04
 IDIUse=3 WtCom= 9.93D-01 WtEn= 6.89D-03
 Coeff-Com: -0.391D-02 0.814D-02 0.171D+00 0.825D+00
 Coeff-En:   0.000D+00 0.000D+00 0.000D+00 0.100D+01
 Coeff:     -0.388D-02 0.809D-02 0.170D+00 0.826D+00
 Gap=     0.278 Goal=   None    Shift=    0.000
 RMSDP=5.49D-05 MaxDP=6.68D-04 DE=-6.07D-04 OVMax= 1.09D-03

 Cycle   5  Pass 0  IDiag  1:
 E= -111.899430277017     Delta-E=       -0.000017779374 Rises=F Damp=F
 DIIS: error= 3.56D-05 at cycle   5 NSaved=   5.
 NSaved= 5 IEnMin= 5 EnMin= -111.899430277017     IErMin= 5 ErrMin= 3.56D-05
 ErrMax= 3.56D-05  0.00D+00 EMaxC= 1.00D-01 BMatC= 8.49D-08 BMatP= 2.42D-05
 IDIUse=1 WtCom= 1.00D+00 WtEn= 0.00D+00
 Coeff-Com:  0.890D-04-0.868D-03 0.164D-01 0.907D-01 0.894D+00
 Coeff:      0.890D-04-0.868D-03 0.164D-01 0.907D-01 0.894D+00
 Gap=     0.278 Goal=   None    Shift=    0.000
 RMSDP=4.55D-06 MaxDP=5.62D-05 DE=-1.78D-05 OVMax= 9.22D-05

 Initial convergence to 1.0D-05 achieved.  Increase integral accuracy.
 Cycle   6  Pass 1  IDiag  1:
 E= -111.899427981281     Delta-E=        0.000002295737 Rises=F Damp=F
 DIIS: error= 5.98D-06 at cycle   1 NSaved=   1.
 NSaved= 1 IEnMin= 1 EnMin= -111.899427981281     IErMin= 1 ErrMin= 5.98D-06
 ErrMax= 5.98D-06  0.00D+00 EMaxC= 1.00D-01 BMatC= 3.54D-09 BMatP= 3.54D-09
 IDIUse=1 WtCom= 1.00D+00 WtEn= 0.00D+00
 Coeff-Com:  0.100D+01
 Coeff:      0.100D+01
 Gap=     0.278 Goal=   None    Shift=    0.000
 RMSDP=4.55D-06 MaxDP=5.62D-05 DE= 2.30D-06 OVMax= 2.77D-05

 Cycle   7  Pass 1  IDiag  1:
 E= -111.899427983979     Delta-E=       -0.000000002699 Rises=F Damp=F
 DIIS: error= 3.91D-06 at cycle   2 NSaved=   2.
 NSaved= 2 IEnMin= 2 EnMin= -111.899427983979     IErMin= 2 ErrMin= 3.91D-06
 ErrMax= 3.91D-06  0.00D+00 EMaxC= 1.00D-01 BMatC= 1.01D-09 BMatP= 3.54D-09
 IDIUse=1 WtCom= 1.00D+00 WtEn= 0.00D+00
 Coeff-Com:  0.322D+00 0.678D+00
 Coeff:      0.322D+00 0.678D+00
 Gap=     0.278 Goal=   None    Shift=    0.000
 RMSDP=5.39D-07 MaxDP=5.66D-06 DE=-2.70D-09 OVMax= 1.05D-05

 Cycle   8  Pass 1  IDiag  1:
 E= -111.899427984677     Delta-E=       -0.000000000698 Rises=F Damp=F
 DIIS: error= 2.11D-06 at cycle   3 NSaved=   3.
 NSaved= 3 IEnMin= 3 EnMin= -111.899427984677     IErMin= 3 ErrMin= 2.11D-06
 ErrMax= 2.11D-06  0.00D+00 EMaxC= 1.00D-01 BMatC= 2.03D-10 BMatP= 1.01D-09
 IDIUse=1 WtCom= 1.00D+00 WtEn= 0.00D+00
 Coeff-Com:  0.821D-01 0.331D+00 0.587D+00
 Coeff:      0.821D-01 0.331D+00 0.587D+00
 Gap=     0.278 Goal=   None    Shift=    0.000
 RMSDP=1.70D-07 MaxDP=2.37D-06 DE=-6.98D-10 OVMax= 3.69D-06

 Cycle   9  Pass 1  IDiag  1:
 E= -111.899427984833     Delta-E=       -0.000000000156 Rises=F Damp=F
 DIIS: error= 4.50D-07 at cycle   4 NSaved=   4.
 NSaved= 4 IEnMin= 4 EnMin= -111.899427984833     IErMin= 4 ErrMin= 4.50D-07
 ErrMax= 4.50D-07  0.00D+00 EMaxC= 1.00D-01 BMatC= 1.04D-11 BMatP= 2.03D-10
 IDIUse=1 WtCom= 1.00D+00 WtEn= 0.00D+00
 Coeff-Com: -0.671D-02 0.458D-01 0.223D+00 0.738D+00
 Coeff:     -0.671D-02 0.458D-01 0.223D+00 0.738D+00
 Gap=     0.278 Goal=   None    Shift=    0.000
 RMSDP=4.28D-08 MaxDP=4.81D-07 DE=-1.56D-10 OVMax= 1.02D-06

 Cycle  10  Pass 1  IDiag  1:
 E= -111.899427984843     Delta-E=       -0.000000000010 Rises=F Damp=F
 DIIS: error= 3.84D-08 at cycle   5 NSaved=   5.
 NSaved= 5 IEnMin= 5 EnMin= -111.899427984843     IErMin= 5 ErrMin= 3.84D-08
 ErrMax= 3.84D-08  0.00D+00 EMaxC= 1.00D-01 BMatC= 8.68D-14 BMatP= 1.04D-11
 IDIUse=1 WtCom= 1.00D+00 WtEn= 0.00D+00
 Coeff-Com: -0.295D-02 0.569D-02 0.423D-01 0.185D+00 0.770D+00
 Coeff:     -0.295D-02 0.569D-02 0.423D-01 0.185D+00 0.770D+00
 Gap=     0.278 Goal=   None    Shift=    0.000
 RMSDP=7.31D-09 MaxDP=6.39D-08 DE=-9.58D-12 OVMax= 1.13D-07

 SCF Done:  E(RB3LYP) =  -111.899427985     A.U. after   10 cycles
            NFock= 10  Conv=0.73D-08     -V/T= 2.0041
 KE= 1.114429032828D+02 PE=-3.436435428968D+02 EE= 7.942906448527D+01
 Leave Link  502 at Sat Feb 16 14:28:29 2019, MaxMem=   196608000 cpu:        27.1
 (Enter /cm/shared/c3ddb/gaussian/09.d01/g09/l508.exe)
 QCSCF skips out because SCF is already converged.
 Leave Link  508 at Sat Feb 16 14:28:29 2019, MaxMem=   196608000 cpu:         0.0
 (Enter /cm/shared/c3ddb/gaussian/09.d01/g09/l801.exe)
 DoSCS=F DFT=T ScalE2(SS,OS)=  1.000000  1.000000
 Range of M.O.s used for correlation:     1    60
 NBasis=    60 NAE=     9 NBE=     9 NFC=     0 NFV=     0
 NROrb=     60 NOA=     9 NOB=     9 NVA=    51 NVB=    51
 Leave Link  801 at Sat Feb 16 14:28:29 2019, MaxMem=   196608000 cpu:         0.2
 (Enter /cm/shared/c3ddb/gaussian/09.d01/g09/l1101.exe)
 Using compressed storage, NAtomX=     6.
 Will process      7 centers per pass.
 Leave Link 1101 at Sat Feb 16 14:28:31 2019, MaxMem=   196608000 cpu:         7.9
 (Enter /cm/shared/c3ddb/gaussian/09.d01/g09/l1102.exe)
 Symmetrizing basis deriv contribution to polar:
 IMax=3 JMax=2 DiffMx= 0.00D+00
 Leave Link 1102 at Sat Feb 16 14:28:31 2019, MaxMem=   196608000 cpu:         0.6
 (Enter /cm/shared/c3ddb/gaussian/09.d01/g09/l1110.exe)
 Forming Gx(P) for the SCF density, NAtomX=     6.
 Integral derivatives from FoFJK, PRISM(SPDF).
 Do as many integral derivatives as possible in FoFJK.
 G2DrvN: MDV=     196607848.
 G2DrvN: will do     7 centers at a time, making    1 passes.
 Calling FoFCou, ICntrl=  3107 FMM=F I1Cent=   0 AccDes= 0.00D+00.
 FoFJK:  IHMeth= 1 ICntrl=    3107 DoSepK=F KAlg= 0 I1Cent=   0 FoldK=F
 IRaf=         0 NMat=   1 IRICut=       1 DoRegI=T DoRafI=F ISym2E= 0.
 FoFCou: FMM=F IPFlag=           0 FMFlag=      100000 FMFlg1=           0
         NFxFlg=           0 DoJE=F BraDBF=F KetDBF=F FulRan=T
         wScrn=  0.000000 ICntrl=    3107 IOpCl=  0 I1Cent=           0 NGrid=           0
         NMat0=    1 NMatS0=      1 NMatT0=    0 NMatD0=    1 NMtDS0=    0 NMtDT0=    0
 Symmetry not used in FoFCou.
 End of G2Drv F.D. properties file   721 does not exist.
 End of G2Drv F.D. properties file   722 does not exist.
 End of G2Drv F.D. properties file   788 does not exist.
 Leave Link 1110 at Sat Feb 16 14:28:34 2019, MaxMem=   196608000 cpu:        18.8
 (Enter /cm/shared/c3ddb/gaussian/09.d01/g09/l1002.exe)
 Minotr:  Closed shell wavefunction.
          IDoAtm=111111
          Direct CPHF calculation.
          Differentiating once with respect to nuclear coordinates.
          Requested convergence is 1.0D-08 RMS, and 1.0D-07 maximum.
          Secondary convergence is 1.0D-12 RMS, and 1.0D-12 maximum.
          NewPWx=T KeepS1=F KeepF1=F KeepIn=T MapXYZ=F SortEE=F KeepMc=T.
          MDV=     196607876 using IRadAn=       2.
 Generate precomputed XC quadrature information.
 Keep R1 ints in memory in canonical form, NReq=2557297.
 FoFCou: FMM=F IPFlag=           0 FMFlag=           0 FMFlg1=           0
         NFxFlg=           0 DoJE=F BraDBF=F KetDBF=F FulRan=T
         wScrn=  0.000000 ICntrl=     600 IOpCl=  0 I1Cent=           0 NGrid=           0
         NMat0=    1 NMatS0=   1830 NMatT0=    0 NMatD0=    1 NMtDS0=    0 NMtDT0=    0
 Symmetry not used in FoFCou.
          Solving linear equations simultaneously, MaxMat=       0.
          There are    21 degrees of freedom in the 1st order CPHF.  IDoFFX=6 NUNeed=     0.
     15 vectors produced by pass  0 Test12= 2.19D-15 4.76D-09 XBig12= 8.68D-02 9.59D-02.
 AX will form    15 AO Fock derivatives at one time.
     15 vectors produced by pass  1 Test12= 2.19D-15 4.76D-09 XBig12= 4.65D-03 2.70D-02.
     15 vectors produced by pass  2 Test12= 2.19D-15 4.76D-09 XBig12= 8.43D-05 2.67D-03.
     15 vectors produced by pass  3 Test12= 2.19D-15 4.76D-09 XBig12= 4.57D-07 1.71D-04.
     15 vectors produced by pass  4 Test12= 2.19D-15 4.76D-09 XBig12= 9.78D-10 8.84D-06.
      8 vectors produced by pass  5 Test12= 2.19D-15 4.76D-09 XBig12= 7.82D-13 2.26D-07.
 InvSVY:  IOpt=1 It=  1 EMax= 8.88D-16
 Solved reduced A of dimension    83 with    15 vectors.
 End of Minotr F.D. properties file   721 does not exist.
 End of Minotr F.D. properties file   722 does not exist.
 End of Minotr F.D. properties file   788 does not exist.
 Leave Link 1002 at Sat Feb 16 14:28:41 2019, MaxMem=   196608000 cpu:        44.2
 (Enter /cm/shared/c3ddb/gaussian/09.d01/g09/l601.exe)
 Copying SCF densities to generalized density rwf, IOpCl= 0 IROHF=0.

 **********************************************************************

            Population analysis using the SCF density.

 **********************************************************************

 Orbital symmetries:
       Occupied  (A) (A) (A) (A) (A) (A) (A) (A) (A)
       Virtual   (A) (A) (A) (A) (A) (A) (A) (A) (A) (A) (A) (A)
                 (A) (A) (A) (A) (A) (A) (A) (A) (A) (A) (A) (A)
                 (A) (A) (A) (A) (A) (A) (A) (A) (A) (A) (A) (A)
                 (A) (A) (A) (A) (A) (A) (A) (A) (A) (A) (A) (A)
                 (A) (A) (A)
 The electronic state is 1-A.
 Alpha  occ. eigenvalues --  -14.31535 -14.31524  -0.93716  -0.74140  -0.49092
 Alpha  occ. eigenvalues --   -0.47433  -0.43746  -0.25994  -0.24911
 Alpha virt. eigenvalues --    0.02893   0.06094   0.10115   0.11552   0.20425
 Alpha virt. eigenvalues --    0.35042   0.38588   0.41913   0.44625   0.58495
 Alpha virt. eigenvalues --    0.60732   0.63797   0.70259   0.73668   0.75181
 Alpha virt. eigenvalues --    0.92163   1.00116   1.12458   1.15830   1.43754
 Alpha virt. eigenvalues --    1.46240   1.56364   1.57930   1.69869   1.70375
 Alpha virt. eigenvalues --    1.74552   1.77775   1.86037   1.96079   2.16093
 Alpha virt. eigenvalues --    2.22098   2.30635   2.36144   2.47901   2.55141
 Alpha virt. eigenvalues --    2.61145   2.67032   2.72608   2.80789   2.82964
 Alpha virt. eigenvalues --    2.98553   2.99911   3.10483   3.63350   3.97322
 Alpha virt. eigenvalues --    4.07025   4.60551   4.65504   5.05334  35.45156
 Alpha virt. eigenvalues --   35.45462
          Condensed to atoms (all electrons):
               1          2          3          4          5          6
     1  N    6.517007   0.245860   0.366407   0.366215  -0.047650  -0.052034
     2  N    0.245860   6.517007  -0.052034  -0.047650   0.366215   0.366407
     3  H    0.366407  -0.052034   0.515395  -0.047422   0.000765   0.007142
     4  H    0.366215  -0.047650  -0.047422   0.557161  -0.015130   0.000765
     5  H   -0.047650   0.366215   0.000765  -0.015130   0.557161  -0.047422
     6  H   -0.052034   0.366407   0.007142   0.000765  -0.047422   0.515395
 Mulliken charges:
               1
     1  N   -0.395806
     2  N   -0.395806
     3  H    0.209747
     4  H    0.186060
     5  H    0.186060
     6  H    0.209747
 Sum of Mulliken charges =   0.00000
 Mulliken charges with hydrogens summed into heavy atoms:
               1
     1  N    0.000000
     2  N    0.000000
 APT charges:
               1
     1  N   -0.813943
     2  N   -0.813943
     3  H    0.424105
     4  H    0.389838
     5  H    0.389838
     6  H    0.424105
 Sum of APT charges =   0.00000
 APT charges with hydrogens summed into heavy atoms:
               1
     1  N    0.000000
     2  N    0.000000
 Electronic spatial extent (au):  <R**2>=             84.0724
 Charge=              0.0000 electrons
 Dipole moment (field-independent basis, Debye):
    X=              0.0000    Y=              2.1984    Z=              0.0000  Tot=              2.1984
 Quadrupole moment (field-independent basis, Debye-Ang):
   XX=            -12.4667   YY=            -12.8486   ZZ=            -13.1224
   XY=              0.0000   XZ=             -2.8868   YZ=              0.0000
 Traceless Quadrupole moment (field-independent basis, Debye-Ang):
   XX=              0.3459   YY=             -0.0360   ZZ=             -0.3098
   XY=              0.0000   XZ=             -2.8868   YZ=              0.0000
 Octapole moment (field-independent basis, Debye-Ang**2):
  XXX=              0.0000  YYY=              3.0453  ZZZ=              0.0000  XYY=              0.0000
  XXY=              2.6678  XXZ=              0.0000  XZZ=              0.0000  YZZ=              0.4031
  YYZ=              0.0000  XYZ=              2.3471
 Hexadecapole moment (field-independent basis, Debye-Ang**3):
 XXXX=            -61.7723 YYYY=            -18.2242 ZZZZ=            -18.3986 XXXY=              0.0000
 XXXZ=             -4.9723 YYYX=              0.0000 YYYZ=              0.0000 ZZZX=             -3.8783
 ZZZY=              0.0000 XXYY=            -13.2364 XXZZ=            -12.8335 YYZZ=             -6.3717
 XXYZ=              0.0000 YYXZ=             -0.3302 ZZXY=              0.0000
 N-N= 4.087214714389D+01 E-N=-3.436435435333D+02  KE= 1.114429032828D+02
  Exact polarizability:   0.000   0.000   0.000   0.000   0.000   0.000
 Approx polarizability:  25.411   0.000  21.115  -1.870   0.000  20.443
 No NMR shielding tensors so no spin-rotation constants.
 Leave Link  601 at Sat Feb 16 14:28:42 2019, MaxMem=   196608000 cpu:         3.8
 (Enter /cm/shared/c3ddb/gaussian/09.d01/g09/l701.exe)
 Compute integral second derivatives.
 ... and contract with generalized density number  0.
 Leave Link  701 at Sat Feb 16 14:28:43 2019, MaxMem=   196608000 cpu:         4.7
 (Enter /cm/shared/c3ddb/gaussian/09.d01/g09/l702.exe)
 L702 exits ... SP integral derivatives will be done elsewhere.
 Leave Link  702 at Sat Feb 16 14:28:43 2019, MaxMem=   196608000 cpu:         0.2
 (Enter /cm/shared/c3ddb/gaussian/09.d01/g09/l703.exe)
 Compute integral second derivatives, UseDBF=F ICtDFT=           0.
 Integral derivatives from FoFJK, PRISM(SPDF).
 Calling FoFJK, ICntrl=    100147 FMM=F ISym2X=0 I1Cent= 0 IOpClX= 0 NMat=1 NMatS=1 NMatT=0.
 FoFJK:  IHMeth= 1 ICntrl=  100147 DoSepK=F KAlg= 0 I1Cent=   0 FoldK=F
 IRaf=         0 NMat=   1 IRICut=       1 DoRegI=T DoRafI=F ISym2E= 0.
 FoFCou: FMM=F IPFlag=           0 FMFlag=      100000 FMFlg1=         800
         NFxFlg=           0 DoJE=F BraDBF=F KetDBF=F FulRan=T
         wScrn=  0.000000 ICntrl=  100147 IOpCl=  0 I1Cent=           0 NGrid=           0
         NMat0=    1 NMatS0=      1 NMatT0=    0 NMatD0=    1 NMtDS0=    0 NMtDT0=    0
 Symmetry not used in FoFCou.
 Leave Link  703 at Sat Feb 16 14:28:47 2019, MaxMem=   196608000 cpu:        26.6
 (Enter /cm/shared/c3ddb/gaussian/09.d01/g09/l716.exe)
 Dipole        = 2.75826554D-07 8.64928206D-01-2.99496085D-06
 Polarizability= 0.00000000D+00 0.00000000D+00 0.00000000D+00
                 0.00000000D+00 0.00000000D+00 0.00000000D+00
 ***** Axes restored to original set *****
 -------------------------------------------------------------------
 Center     Atomic                   Forces (Hartrees/Bohr)
 Number     Number              X              Y              Z
 -------------------------------------------------------------------
      1        7          -0.013255065   -0.001113769    0.016463127
      2        7           0.003554104    0.020846860    0.000864345
      3        1           0.008250161    0.011766514   -0.006952727
      4        1           0.006686725   -0.011141224   -0.008012550
      5        1           0.003798424   -0.010187412   -0.010715861
      6        1          -0.009034349   -0.010170969    0.008353665
 -------------------------------------------------------------------
 Cartesian Forces:  Max     0.020846860 RMS     0.010197308
 Force constants in Cartesian coordinates: 
                1             2             3             4             5 
      1  0.464045D+00
      2  0.215519D-01  0.577762D+00
      3 -0.377098D-01  0.215733D-02  0.226518D+00
      4 -0.170465D+00  0.134539D-01 -0.147193D-01  0.439800D+00
      5 -0.348134D-01 -0.718896D-01 -0.204508D-01  0.110683D+00  0.315469D+00
      6 -0.709257D-01  0.766838D-02 -0.889471D-01 -0.962664D-01  0.501590D-01
      7 -0.116816D+00 -0.108681D+00  0.396199D-01 -0.283917D-01 -0.257743D-01
      8 -0.106358D+00 -0.260652D+00  0.782453D-01  0.101920D-02  0.685408D-02
      9  0.672925D-01  0.129445D+00 -0.701146D-01 -0.184404D-01 -0.172653D-01
     10 -0.134812D+00  0.115144D+00  0.405658D-01 -0.310335D-01  0.217269D-01
     11  0.108587D+00 -0.239792D+00 -0.682568D-01 -0.111698D-02  0.653222D-02
     12  0.726064D-01 -0.116881D+00 -0.651680D-01 -0.254804D-01  0.172640D-01
     13 -0.121737D-01 -0.194415D-01 -0.380211D-01 -0.659094D-01  0.171699D-01
     14  0.588113D-02 -0.199871D-02  0.833102D-02  0.116033D-01 -0.128321D+00
     15 -0.958351D-02 -0.100640D-01 -0.142134D-01  0.364243D-01 -0.118630D+00
     16 -0.297792D-01 -0.220281D-01  0.102646D-01 -0.144000D+00 -0.889923D-01
     17  0.515118D-02 -0.343033D-02 -0.260456D-04 -0.135643D+00 -0.128644D+00
     18 -0.216799D-01 -0.123257D-01  0.119248D-01  0.118482D+00  0.889230D-01
                6             7             8             9            10 
      6  0.513057D+00
      7  0.110813D-01  0.142241D+00
      8  0.651756D-03  0.118697D+00  0.282685D+00
      9  0.252924D-03 -0.405558D-01 -0.924821D-01  0.713582D-01
     10  0.578019D-02  0.105216D-01 -0.147446D-01 -0.329864D-02  0.155782D+00
     11  0.256767D-03  0.191624D-01 -0.291893D-01 -0.158815D-01 -0.123852D+00
     12 -0.388456D-02 -0.489121D-02  0.143072D-01 -0.240604D-03 -0.426412D-01
     13  0.546575D-01 -0.935366D-03 -0.210830D-03 -0.265757D-02  0.248411D-02
     14 -0.174042D+00 -0.136558D-02 -0.116507D-02 -0.300238D-02 -0.101179D-02
     15 -0.245541D+00  0.193909D-04  0.618227D-03 -0.980403D-03  0.689795D-03
     16  0.956730D-01 -0.661971D-02  0.159704D-02 -0.234016D-02 -0.294305D-02
     17  0.115306D+00 -0.203857D-02  0.146644D-02 -0.813764D-03  0.273671D-02
     18 -0.174938D+00 -0.527368D-02 -0.134033D-02 -0.275495D-03 -0.109592D-02
               11            12            13            14            15 
     11  0.258763D+00
     12  0.828669D-01  0.660237D-01
     13 -0.189844D-02 -0.125703D-02  0.788284D-01
     14  0.352243D-02  0.313895D-02 -0.119966D-01  0.122123D+00
     15  0.762479D-03  0.357033D-02 -0.337045D-01  0.144500D+00  0.279618D+00
     16 -0.882065D-03  0.166340D-02 -0.229403D-02 -0.311051D-02  0.615455D-02
     17  0.163091D-03 -0.696095D-03  0.163775D-01  0.583950D-02 -0.171871D-01
     18  0.252044D-03 -0.300880D-03  0.209828D-01  0.210740D-01 -0.224538D-01
               16            17            18 
     16  0.185636D+00
     17  0.113416D+00  0.124605D+00
     18 -0.111415D+00 -0.965830D-01  0.186043D+00
 FormGI is forming the generalized inverse of G from B-inverse, IUseBI=4.
 Force constants in internal coordinates: 
                1             2             3             4             5 
      1  0.313555D+00
      2  0.512072D-02  0.382155D+00
      3  0.458214D-02  0.863080D-03  0.369002D+00
      4  0.458215D-02 -0.349820D-03  0.371878D-02  0.369001D+00
      5  0.512071D-02 -0.159562D-02 -0.349817D-03  0.863083D-03  0.382155D+00
      6  0.596358D-01  0.317214D-02  0.259777D-02  0.360373D-02  0.558117D-02
      7  0.556125D-01  0.260714D-02 -0.484662D-02 -0.686086D-02 -0.176062D-02
      8 -0.228553D-01  0.115136D-01  0.140472D-01  0.354117D-03 -0.181059D-02
      9  0.556126D-01 -0.176061D-02 -0.686086D-02 -0.484662D-02  0.260714D-02
     10  0.596360D-01  0.558118D-02  0.360373D-02  0.259777D-02  0.317215D-02
     11 -0.228553D-01 -0.181060D-02  0.354113D-03  0.140472D-01  0.115136D-01
     12  0.930029D-03 -0.788476D-02 -0.958220D-02  0.646157D-02  0.808497D-02
     13 -0.257385D-01 -0.773207D-02 -0.873975D-02 -0.873976D-02 -0.773207D-02
     14  0.275985D-01  0.793229D-02  0.561912D-02  0.561912D-02  0.793229D-02
     15  0.930034D-03  0.808498D-02  0.646156D-02 -0.958220D-02 -0.788476D-02
                6             7             8             9            10 
      6  0.185947D+00
      7 -0.272409D-01  0.189529D+00
      8 -0.511457D-01 -0.483273D-01  0.580715D-01
      9  0.365033D-02 -0.237997D-02  0.115910D-02  0.189529D+00
     10  0.197888D-01  0.365031D-02 -0.958041D-02 -0.272408D-01  0.185947D+00
     11 -0.958040D-02  0.115910D-02  0.184627D-02 -0.483273D-01 -0.511457D-01
     12 -0.977538D-02 -0.674712D-02 -0.115015D-01  0.515930D-02  0.912743D-02
     13 -0.991585D-02 -0.879257D-02 -0.951246D-02 -0.879257D-02 -0.991587D-02
     14  0.926788D-02  0.720476D-02  0.932745D-02  0.720476D-02  0.926789D-02
     15  0.912741D-02  0.515932D-02  0.113165D-01 -0.674712D-02 -0.977541D-02
               11            12            13            14            15 
     11  0.580715D-01
     12  0.113165D-01  0.211779D-01
     13 -0.951249D-02  0.161711D-02  0.210719D-01
     14  0.932748D-02  0.405002D-03 -0.178377D-01  0.186477D-01
     15 -0.115015D-01 -0.191558D-01  0.161713D-02  0.404992D-03  0.211779D-01
 Leave Link  716 at Sat Feb 16 14:28:47 2019, MaxMem=   196608000 cpu:         0.7
 (Enter /cm/shared/c3ddb/gaussian/09.d01/g09/l103.exe)

 GradGradGradGradGradGradGradGradGradGradGradGradGradGradGradGradGradGrad
 Berny optimization.
 Red2BG is reusing G-inverse.
 Internal  Forces:  Max     0.015840118 RMS     0.008353177
 Search for a local minimum.
 Step number   1 out of a maximum of   25
 All quantities printed in internal units (Hartrees-Bohrs-Radians)
 RMS Force = .83532D-02 SwitMx=.10000D-02 MixMth= 1
 Mixed Optimization -- RFO/linear search
 Second derivative matrix not updated -- analytic derivatives used.
 The second derivative matrix:
                          R1        R2        R3        R4        R5
           R1           0.31355
           R2           0.00512   0.38215
           R3           0.00458   0.00086   0.36900
           R4           0.00458  -0.00035   0.00372   0.36900
           R5           0.00512  -0.00160  -0.00035   0.00086   0.38216
           A1           0.05964   0.00317   0.00260   0.00360   0.00558
           A2           0.05561   0.00261  -0.00485  -0.00686  -0.00176
           A3          -0.02286   0.01151   0.01405   0.00035  -0.00181
           A4           0.05561  -0.00176  -0.00686  -0.00485   0.00261
           A5           0.05964   0.00558   0.00360   0.00260   0.00317
           A6          -0.02286  -0.00181   0.00035   0.01405   0.01151
           D1           0.00093  -0.00788  -0.00958   0.00646   0.00808
           D2          -0.02574  -0.00773  -0.00874  -0.00874  -0.00773
           D3           0.02760   0.00793   0.00562   0.00562   0.00793
           D4           0.00093   0.00808   0.00646  -0.00958  -0.00788
                          A1        A2        A3        A4        A5
           A1           0.18595
           A2          -0.02724   0.18953
           A3          -0.05115  -0.04833   0.05807
           A4           0.00365  -0.00238   0.00116   0.18953
           A5           0.01979   0.00365  -0.00958  -0.02724   0.18595
           A6          -0.00958   0.00116   0.00185  -0.04833  -0.05115
           D1          -0.00978  -0.00675  -0.01150   0.00516   0.00913
           D2          -0.00992  -0.00879  -0.00951  -0.00879  -0.00992
           D3           0.00927   0.00720   0.00933   0.00720   0.00927
           D4           0.00913   0.00516   0.01132  -0.00675  -0.00978
                          A6        D1        D2        D3        D4
           A6           0.05807
           D1           0.01132   0.02118
           D2          -0.00951   0.00162   0.02107
           D3           0.00933   0.00041  -0.01784   0.01865
           D4          -0.01150  -0.01916   0.00162   0.00040   0.02118
 ITU=  0
     Eigenvalues ---    0.00382   0.04908   0.05991   0.13499   0.17613
     Eigenvalues ---    0.21561   0.21962   0.36641   0.37475   0.37715
     Eigenvalues ---    0.38560   0.40196
 RFO step:  Lambda=-4.09903755D-03 EMin= 3.81695432D-03
 Linear search not attempted -- first point.
 Iteration  1 RMS(Cart)=  0.03963832 RMS(Int)=  0.00256912
 Iteration  2 RMS(Cart)=  0.00210766 RMS(Int)=  0.00122886
 Iteration  3 RMS(Cart)=  0.00000404 RMS(Int)=  0.00122886
 Iteration  4 RMS(Cart)=  0.00000001 RMS(Int)=  0.00122886
 ITry= 1 IFail=0 DXMaxC= 7.38D-02 DCOld= 1.00D+10 DXMaxT= 3.00D-01 DXLimC= 3.00D+00 Rises=F
 Variable       Old X    -DE/DX   Delta X   Delta X   Delta X     New X
                                 (Linear)    (Quad)   (Total)
    R1        2.75613  -0.00219   0.00000  -0.04075  -0.04075   2.71538
    R2        1.95880  -0.01584   0.00000  -0.04610  -0.04610   1.91270
    R3        1.96428  -0.01482   0.00000  -0.04257  -0.04257   1.92171
    R4        1.96428  -0.01482   0.00000  -0.04257  -0.04257   1.92171
    R5        1.95880  -0.01584   0.00000  -0.04610  -0.04610   1.91270
    A1        1.83958   0.00072   0.00000   0.02908   0.02793   1.86751
    A2        1.90195   0.00617   0.00000   0.04948   0.04844   1.95038
    A3        1.82573   0.00036   0.00000   0.04588   0.04358   1.86932
    A4        1.90195   0.00617   0.00000   0.04948   0.04844   1.95038
    A5        1.83958   0.00072   0.00000   0.02908   0.02793   1.86751
    A6        1.82573   0.00036   0.00000   0.04588   0.04358   1.86932
    D1       -1.59479  -0.00001   0.00000   0.01469   0.01469  -1.58010
    D2        2.73718  -0.00344   0.00000  -0.07321  -0.07512   2.66207
    D3        0.35642   0.00342   0.00000   0.10259   0.10450   0.46091
    D4       -1.59479  -0.00001   0.00000   0.01469   0.01469  -1.58010
         Item               Value     Threshold  Converged?
 Maximum Force            0.015840     0.000450     NO 
 RMS     Force            0.008353     0.000300     NO 
 Maximum Displacement     0.073792     0.001800     NO 
 RMS     Displacement     0.039509     0.001200     NO 
 Predicted change in Energy=-2.124437D-03
 Lowest energy point so far.  Saving SCF results.
 GradGradGradGradGradGradGradGradGradGradGradGradGradGradGradGradGradGrad

 Leave Link  103 at Sat Feb 16 14:28:51 2019, MaxMem=   196608000 cpu:        21.7
 (Enter /cm/shared/c3ddb/gaussian/09.d01/g09/l202.exe)
                          Input orientation:                          
 ---------------------------------------------------------------------
 Center     Atomic      Atomic             Coordinates (Angstroms)
 Number     Number       Type             X           Y           Z
 ---------------------------------------------------------------------
      1          7           0       -0.651364    0.017280   -0.306502
      2          7           0        0.617774    0.050232    0.366500
      3          1           0       -1.130155   -0.818123    0.005463
      4          1           0       -1.234654    0.809778   -0.049865
      5          1           0        0.563777    0.554089    1.248177
      6          1           0        1.255862    0.561597   -0.229999
 ---------------------------------------------------------------------
                    Distance matrix (angstroms):
                    1          2          3          4          5
     1  N    0.000000
     2  N    1.436916   0.000000
     3  H    1.012157   1.984854   0.000000
     4  H    1.016927   2.044934   1.632190   0.000000
     5  H    2.044934   1.016927   2.509325   2.232632   0.000000
     6  H    1.984854   1.012157   2.766252   2.509325   1.632190
                    6
     6  H    0.000000
 Stoichiometry    H4N2
 Framework group  C1[X(H4N2)]
 Deg. of freedom    12
 Full point group                 C1      NOp   1
 RotChk:  IX=0 Diff= 1.16D-02
 Largest Abelian subgroup         C1      NOp   1
 Largest concise Abelian subgroup C1      NOp   1
                         Standard orientation:                         
 ---------------------------------------------------------------------
 Center     Atomic      Atomic             Coordinates (Angstroms)
 Number     Number       Type             X           Y           Z
 ---------------------------------------------------------------------
      1          7           0        0.711213   -0.076634    0.101770
      2          7           0       -0.711213   -0.076635   -0.101770
      3          1           0        1.137346   -0.306493   -0.787070
      4          1           0        1.053662    0.842935    0.368722
      5          1           0       -1.053662    0.842933   -0.368726
      6          1           0       -1.137346   -0.306490    0.787072
 ---------------------------------------------------------------------
 Rotational constants (GHZ):    144.1982503     24.2730540     24.2689492
 Leave Link  202 at Sat Feb 16 14:28:51 2019, MaxMem=   196608000 cpu:         0.3
 (Enter /cm/shared/c3ddb/gaussian/09.d01/g09/l301.exe)
 Standard basis: 6-311G(2d,d,p) (5D, 7F)
 Ernie: Thresh=  0.10000D-02 Tol=  0.10000D-05 Strict=F.
 There are    62 symmetry adapted cartesian basis functions of A   symmetry.
 There are    60 symmetry adapted basis functions of A   symmetry.
    60 basis functions,    96 primitive gaussians,    62 cartesian basis functions
     9 alpha electrons        9 beta electrons
       nuclear repulsion energy        41.5038998095 Hartrees.
 IExCor=  402 DFT=T Ex+Corr=B3LYP ExCW=0 ScaHFX=  0.200000
 ScaDFX=  0.800000  0.720000  1.000000  0.810000 ScalE2=  1.000000  1.000000
 IRadAn=      0 IRanWt=     -1 IRanGd=            0 ICorTp=0 IEmpDi=  4
 NAtoms=    6 NActive=    6 NUniq=    6 SFac= 1.00D+00 NAtFMM=   60 NAOKFM=F Big=F
 Integral buffers will be    131072 words long.
 Raffenetti 2 integral format.
 Two-electron integral symmetry is turned on.
 Leave Link  301 at Sat Feb 16 14:28:51 2019, MaxMem=   196608000 cpu:         0.4
 (Enter /cm/shared/c3ddb/gaussian/09.d01/g09/l302.exe)
 NPDir=0 NMtPBC=     1 NCelOv=     1 NCel=       1 NClECP=     1 NCelD=      1
         NCelK=      1 NCelE2=     1 NClLst=     1 CellRange=     0.0.
 One-electron integrals computed using PRISM.
 NBasis=    60 RedAO= T EigKep=  5.77D-03  NBF=    60
 NBsUse=    60 1.00D-06 EigRej= -1.00D+00 NBFU=    60
 Precomputing XC quadrature grid using
 IXCGrd= 4 IRadAn=           0 IRanWt=          -1 IRanGd=           0 AccXCQ= 0.00D+00.
 Generated NRdTot=       0 NPtTot=           0 NUsed=           0 NTot=          32
 NSgBfM=    62    62    62    62    62 MxSgAt=     6 MxSgA2=     6.
 Leave Link  302 at Sat Feb 16 14:28:52 2019, MaxMem=   196608000 cpu:         5.3
 (Enter /cm/shared/c3ddb/gaussian/09.d01/g09/l303.exe)
 DipDrv:  MaxL=1.
 Leave Link  303 at Sat Feb 16 14:28:52 2019, MaxMem=   196608000 cpu:         1.0
 (Enter /cm/shared/c3ddb/gaussian/09.d01/g09/l401.exe)
 Initial guess from the checkpoint file:  "check.chk"
 B after Tr=     0.000000    0.000000    0.000000
         Rot=    0.999999   -0.000001   -0.001421    0.000000 Ang=  -0.16 deg.
 Guess basis will be translated and rotated to current coordinates.
 JPrj=2 DoOrth=T DoCkMO=T.
 Generating alternative initial guess.
 ExpMin= 1.03D-01 ExpMax= 6.29D+03 ExpMxC= 9.49D+02 IAcc=1 IRadAn=         1 AccDes= 0.00D+00
 Harris functional with IExCor=  402 and IRadAn=       1 diagonalized for initial guess.
 HarFok:  IExCor=  402 AccDes= 0.00D+00 IRadAn=         1 IDoV= 1 UseB2=F ITyADJ=14
 ICtDFT=  3500011 ScaDFX=  1.000000  1.000000  1.000000  1.000000
 FoFCou: FMM=F IPFlag=           0 FMFlag=      100000 FMFlg1=           0
         NFxFlg=           0 DoJE=T BraDBF=F KetDBF=T FulRan=T
         wScrn=  0.000000 ICntrl=     500 IOpCl=  0 I1Cent=   200000004 NGrid=           0
         NMat0=    1 NMatS0=      1 NMatT0=    0 NMatD0=    1 NMtDS0=    0 NMtDT0=    0
 Petite list used in FoFCou.
 Harris En= -111.916187949213    
 Leave Link  401 at Sat Feb 16 14:28:53 2019, MaxMem=   196608000 cpu:         8.9
 (Enter /cm/shared/c3ddb/gaussian/09.d01/g09/l502.exe)
 Closed shell SCF:
 Using DIIS extrapolation, IDIIS=  1040.
 Integral symmetry usage will be decided dynamically.
 Keep R1 ints in memory in canonical form, NReq=2575347.
 IVT=       18440 IEndB=       18440 NGot=   196608000 MDV=   194914196
 LenX=   194914196 LenY=   194909911
 Requested convergence on RMS density matrix=1.00D-08 within  64 cycles.
 Requested convergence on MAX density matrix=1.00D-06.
 Requested convergence on             energy=1.00D-06.
 No special actions if energy rises.
 FoFCou: FMM=F IPFlag=           0 FMFlag=           0 FMFlg1=           0
         NFxFlg=           0 DoJE=F BraDBF=F KetDBF=F FulRan=T
         wScrn=  0.000000 ICntrl=     600 IOpCl=  0 I1Cent=           0 NGrid=           0
         NMat0=    1 NMatS0=   1830 NMatT0=    0 NMatD0=    1 NMtDS0=    0 NMtDT0=    0
 Symmetry not used in FoFCou.
 Integral accuracy reduced to 1.0D-05 until final iterations.

 Cycle   1  Pass 0  IDiag  1:
 E= -111.899513067033    
 DIIS: error= 4.03D-03 at cycle   1 NSaved=   1.
 NSaved= 1 IEnMin= 1 EnMin= -111.899513067033     IErMin= 1 ErrMin= 4.03D-03
 ErrMax= 4.03D-03  0.00D+00 EMaxC= 1.00D-01 BMatC= 1.55D-03 BMatP= 1.55D-03
 IDIUse=3 WtCom= 9.60D-01 WtEn= 4.03D-02
 Coeff-Com:  0.100D+01
 Coeff-En:   0.100D+01
 Coeff:      0.100D+01
 Gap=     0.572 Goal=   None    Shift=    0.000
 GapD=    0.572 DampG=2.000 DampE=1.000 DampFc=2.0000 IDamp=-1.
 RMSDP=9.87D-04 MaxDP=1.42D-02              OVMax= 1.92D-02

 Cycle   2  Pass 0  IDiag  1:
 E= -111.901268765232     Delta-E=       -0.001755698199 Rises=F Damp=F
 DIIS: error= 2.34D-03 at cycle   2 NSaved=   2.
 NSaved= 2 IEnMin= 2 EnMin= -111.901268765232     IErMin= 2 ErrMin= 2.34D-03
 ErrMax= 2.34D-03  0.00D+00 EMaxC= 1.00D-01 BMatC= 2.94D-04 BMatP= 1.55D-03
 IDIUse=3 WtCom= 9.77D-01 WtEn= 2.34D-02
 Coeff-Com:  0.198D+00 0.802D+00
 Coeff-En:   0.000D+00 0.100D+01
 Coeff:      0.193D+00 0.807D+00
 Gap=     0.279 Goal=   None    Shift=    0.000
 RMSDP=3.15D-04 MaxDP=5.13D-03 DE=-1.76D-03 OVMax= 6.18D-03

 Cycle   3  Pass 0  IDiag  1:
 E= -111.901338804959     Delta-E=       -0.000070039727 Rises=F Damp=F
 DIIS: error= 2.23D-03 at cycle   3 NSaved=   3.
 NSaved= 3 IEnMin= 3 EnMin= -111.901338804959     IErMin= 3 ErrMin= 2.23D-03
 ErrMax= 2.23D-03  0.00D+00 EMaxC= 1.00D-01 BMatC= 2.16D-04 BMatP= 2.94D-04
 IDIUse=3 WtCom= 9.78D-01 WtEn= 2.23D-02
 Coeff-Com: -0.253D-01 0.465D+00 0.560D+00
 Coeff-En:   0.000D+00 0.423D+00 0.577D+00
 Coeff:     -0.247D-01 0.464D+00 0.561D+00
 Gap=     0.282 Goal=   None    Shift=    0.000
 RMSDP=1.54D-04 MaxDP=1.83D-03 DE=-7.00D-05 OVMax= 3.36D-03

 Cycle   4  Pass 0  IDiag  1:
 E= -111.901515527635     Delta-E=       -0.000176722676 Rises=F Damp=F
 DIIS: error= 1.01D-04 at cycle   4 NSaved=   4.
 NSaved= 4 IEnMin= 4 EnMin= -111.901515527635     IErMin= 4 ErrMin= 1.01D-04
 ErrMax= 1.01D-04  0.00D+00 EMaxC= 1.00D-01 BMatC= 5.86D-07 BMatP= 2.16D-04
 IDIUse=3 WtCom= 9.99D-01 WtEn= 1.01D-03
 Coeff-Com: -0.802D-02 0.821D-01 0.121D+00 0.805D+00
 Coeff-En:   0.000D+00 0.000D+00 0.000D+00 0.100D+01
 Coeff:     -0.802D-02 0.820D-01 0.121D+00 0.805D+00
 Gap=     0.282 Goal=   None    Shift=    0.000
 RMSDP=2.01D-05 MaxDP=2.02D-04 DE=-1.77D-04 OVMax= 3.03D-04

 Cycle   5  Pass 0  IDiag  1:
 E= -111.901516058164     Delta-E=       -0.000000530529 Rises=F Damp=F
 DIIS: error= 1.57D-05 at cycle   5 NSaved=   5.
 NSaved= 5 IEnMin= 5 EnMin= -111.901516058164     IErMin= 5 ErrMin= 1.57D-05
 ErrMax= 1.57D-05  0.00D+00 EMaxC= 1.00D-01 BMatC= 1.46D-08 BMatP= 5.86D-07
 IDIUse=1 WtCom= 1.00D+00 WtEn= 0.00D+00
 Coeff-Com: -0.279D-03-0.537D-02-0.315D-02 0.120D+00 0.889D+00
 Coeff:     -0.279D-03-0.537D-02-0.315D-02 0.120D+00 0.889D+00
 Gap=     0.282 Goal=   None    Shift=    0.000
 RMSDP=2.84D-06 MaxDP=2.03D-05 DE=-5.31D-07 OVMax= 7.52D-05

 Initial convergence to 1.0D-05 achieved.  Increase integral accuracy.
 Cycle   6  Pass 1  IDiag  1:
 E= -111.901504648104     Delta-E=        0.000011410059 Rises=F Damp=F
 DIIS: error= 4.37D-06 at cycle   1 NSaved=   1.
 NSaved= 1 IEnMin= 1 EnMin= -111.901504648104     IErMin= 1 ErrMin= 4.37D-06
 ErrMax= 4.37D-06  0.00D+00 EMaxC= 1.00D-01 BMatC= 1.65D-09 BMatP= 1.65D-09
 IDIUse=1 WtCom= 1.00D+00 WtEn= 0.00D+00
 Coeff-Com:  0.100D+01
 Coeff:      0.100D+01
 Gap=     0.282 Goal=   None    Shift=    0.000
 RMSDP=2.84D-06 MaxDP=2.03D-05 DE= 1.14D-05 OVMax= 1.62D-05

 Cycle   7  Pass 1  IDiag  1:
 E= -111.901504649583     Delta-E=       -0.000000001479 Rises=F Damp=F
 DIIS: error= 1.97D-06 at cycle   2 NSaved=   2.
 NSaved= 2 IEnMin= 2 EnMin= -111.901504649583     IErMin= 2 ErrMin= 1.97D-06
 ErrMax= 1.97D-06  0.00D+00 EMaxC= 1.00D-01 BMatC= 1.78D-10 BMatP= 1.65D-09
 IDIUse=1 WtCom= 1.00D+00 WtEn= 0.00D+00
 Coeff-Com:  0.172D+00 0.828D+00
 Coeff:      0.172D+00 0.828D+00
 Gap=     0.282 Goal=   None    Shift=    0.000
 RMSDP=2.94D-07 MaxDP=2.83D-06 DE=-1.48D-09 OVMax= 6.32D-06

 Cycle   8  Pass 1  IDiag  1:
 E= -111.901504649676     Delta-E=       -0.000000000092 Rises=F Damp=F
 DIIS: error= 1.36D-06 at cycle   3 NSaved=   3.
 NSaved= 3 IEnMin= 3 EnMin= -111.901504649676     IErMin= 3 ErrMin= 1.36D-06
 ErrMax= 1.36D-06  0.00D+00 EMaxC= 1.00D-01 BMatC= 8.50D-11 BMatP= 1.78D-10
 IDIUse=1 WtCom= 1.00D+00 WtEn= 0.00D+00
 Coeff-Com:  0.246D-01 0.407D+00 0.569D+00
 Coeff:      0.246D-01 0.407D+00 0.569D+00
 Gap=     0.282 Goal=   None    Shift=    0.000
 RMSDP=1.12D-07 MaxDP=1.45D-06 DE=-9.23D-11 OVMax= 2.41D-06

 Cycle   9  Pass 1  IDiag  1:
 E= -111.901504649742     Delta-E=       -0.000000000066 Rises=F Damp=F
 DIIS: error= 2.89D-07 at cycle   4 NSaved=   4.
 NSaved= 4 IEnMin= 4 EnMin= -111.901504649742     IErMin= 4 ErrMin= 2.89D-07
 ErrMax= 2.89D-07  0.00D+00 EMaxC= 1.00D-01 BMatC= 4.70D-12 BMatP= 8.50D-11
 IDIUse=1 WtCom= 1.00D+00 WtEn= 0.00D+00
 Coeff-Com: -0.731D-02 0.109D+00 0.249D+00 0.649D+00
 Coeff:     -0.731D-02 0.109D+00 0.249D+00 0.649D+00
 Gap=     0.282 Goal=   None    Shift=    0.000
 RMSDP=2.77D-08 MaxDP=2.99D-07 DE=-6.62D-11 OVMax= 5.93D-07

 Cycle  10  Pass 1  IDiag  1:
 E= -111.901504649746     Delta-E=       -0.000000000004 Rises=F Damp=F
 DIIS: error= 2.07D-08 at cycle   5 NSaved=   5.
 NSaved= 5 IEnMin= 5 EnMin= -111.901504649746     IErMin= 5 ErrMin= 2.07D-08
 ErrMax= 2.07D-08  0.00D+00 EMaxC= 1.00D-01 BMatC= 3.05D-14 BMatP= 4.70D-12
 IDIUse=1 WtCom= 1.00D+00 WtEn= 0.00D+00
 Coeff-Com: -0.211D-02 0.118D-01 0.298D-01 0.125D+00 0.835D+00
 Coeff:     -0.211D-02 0.118D-01 0.298D-01 0.125D+00 0.835D+00
 Gap=     0.282 Goal=   None    Shift=    0.000
 RMSDP=3.23D-09 MaxDP=2.57D-08 DE=-3.87D-12 OVMax= 7.45D-08

 SCF Done:  E(RB3LYP) =  -111.901504650     A.U. after   10 cycles
            NFock= 10  Conv=0.32D-08     -V/T= 2.0029
 KE= 1.115767313554D+02 PE=-3.450038904324D+02 EE= 8.002175461767D+01
 Leave Link  502 at Sat Feb 16 14:28:58 2019, MaxMem=   196608000 cpu:        28.8
 (Enter /cm/shared/c3ddb/gaussian/09.d01/g09/l508.exe)
 QCSCF skips out because SCF is already converged.
 Leave Link  508 at Sat Feb 16 14:28:58 2019, MaxMem=   196608000 cpu:         0.0
 (Enter /cm/shared/c3ddb/gaussian/09.d01/g09/l701.exe)
 Compute integral first derivatives.
 ... and contract with generalized density number  0.
 Leave Link  701 at Sat Feb 16 14:28:59 2019, MaxMem=   196608000 cpu:         4.0
 (Enter /cm/shared/c3ddb/gaussian/09.d01/g09/l702.exe)
 L702 exits ... SP integral derivatives will be done elsewhere.
 Leave Link  702 at Sat Feb 16 14:28:59 2019, MaxMem=   196608000 cpu:         0.2
 (Enter /cm/shared/c3ddb/gaussian/09.d01/g09/l703.exe)
 Compute integral first derivatives, UseDBF=F ICtDFT=           0.
 Integral derivatives from FoFJK, PRISM(SPDF).
 Calling FoFJK, ICntrl=      2127 FMM=F ISym2X=0 I1Cent= 0 IOpClX= 0 NMat=1 NMatS=1 NMatT=0.
 FoFJK:  IHMeth= 1 ICntrl=    2127 DoSepK=F KAlg= 0 I1Cent=   0 FoldK=F
 IRaf=         0 NMat=   1 IRICut=       1 DoRegI=T DoRafI=F ISym2E= 0.
 FoFCou: FMM=F IPFlag=           0 FMFlag=      100000 FMFlg1=         800
         NFxFlg=           0 DoJE=F BraDBF=F KetDBF=F FulRan=T
         wScrn=  0.000000 ICntrl=    2127 IOpCl=  0 I1Cent=           0 NGrid=           0
         NMat0=    1 NMatS0=      1 NMatT0=    0 NMatD0=    1 NMtDS0=    0 NMtDT0=    0
 Symmetry not used in FoFCou.
 Leave Link  703 at Sat Feb 16 14:29:00 2019, MaxMem=   196608000 cpu:         6.6
 (Enter /cm/shared/c3ddb/gaussian/09.d01/g09/l716.exe)
 Dipole        = 4.73151904D-08 8.18214781D-01-1.85342593D-06
 ***** Axes restored to original set *****
 -------------------------------------------------------------------
 Center     Atomic                   Forces (Hartrees/Bohr)
 Number     Number              X              Y              Z
 -------------------------------------------------------------------
      1        7           0.000124266   -0.000117924    0.000389747
      2        7          -0.000203992    0.000280136   -0.000247349
      3        1          -0.000652233   -0.001376614   -0.000135254
      4        1          -0.000594023    0.001018578   -0.000340607
      5        1           0.000099905   -0.000013451    0.001223208
      6        1           0.001226077    0.000209274   -0.000889745
 -------------------------------------------------------------------
 Cartesian Forces:  Max     0.001376614 RMS     0.000668862
 Leave Link  716 at Sat Feb 16 14:29:00 2019, MaxMem=   196608000 cpu:         0.2
 (Enter /cm/shared/c3ddb/gaussian/09.d01/g09/l103.exe)

 GradGradGradGradGradGradGradGradGradGradGradGradGradGradGradGradGradGrad
 Berny optimization.
 Using GEDIIS/GDIIS optimizer.
 FormGI is forming the generalized inverse of G from B-inverse, IUseBI=4.
 Internal  Forces:  Max     0.001400873 RMS     0.000830336
 Search for a local minimum.
 Step number   2 out of a maximum of   25
 All quantities printed in internal units (Hartrees-Bohrs-Radians)
 RMS Force = .83034D-03 SwitMx=.10000D-02 MixMth= 2
 Mixed Optimization -- En-DIIS/RFO-DIIS
 Update second derivatives using D2CorX and points    1    2
 DE= -2.08D-03 DEPred=-2.12D-03 R= 9.78D-01
 TightC=F SS=  1.41D+00  RLast= 1.91D-01 DXNew= 5.0454D-01 5.7378D-01
 Trust test= 9.78D-01 RLast= 1.91D-01 DXMaxT set to 5.05D-01
 The second derivative matrix:
                          R1        R2        R3        R4        R5
           R1           0.31503
           R2           0.01054   0.39267
           R3           0.00945   0.00960   0.37616
           R4           0.00945   0.00839   0.01088   0.37616
           R5           0.01054   0.00892   0.00839   0.00960   0.39268
           A1           0.05984   0.00492   0.00424   0.00525   0.00733
           A2           0.05435   0.00283  -0.00429  -0.00630  -0.00154
           A3          -0.02292   0.01137   0.01393   0.00023  -0.00196
           A4           0.05435  -0.00154  -0.00630  -0.00429   0.00283
           A5           0.05984   0.00733   0.00525   0.00424   0.00492
           A6          -0.02292  -0.00196   0.00023   0.01393   0.01137
           D1           0.00090  -0.00810  -0.00978   0.00626   0.00787
           D2          -0.02536  -0.00936  -0.01043  -0.01043  -0.00936
           D3           0.02717   0.00914   0.00691   0.00691   0.00914
           D4           0.00090   0.00787   0.00626  -0.00978  -0.00810
                          A1        A2        A3        A4        A5
           A1           0.18587
           A2          -0.02793   0.18809
           A3          -0.05117  -0.04832   0.05807
           A4           0.00296  -0.00381   0.00116   0.18809
           A5           0.01971   0.00296  -0.00960  -0.02793   0.18587
           A6          -0.00960   0.00116   0.00185  -0.04832  -0.05117
           D1          -0.00977  -0.00666  -0.01150   0.00524   0.00914
           D2          -0.00954  -0.00755  -0.00950  -0.00755  -0.00954
           D3           0.00891   0.00613   0.00932   0.00613   0.00891
           D4           0.00914   0.00524   0.01132  -0.00666  -0.00977
                          A6        D1        D2        D3        D4
           A6           0.05807
           D1           0.01132   0.02118
           D2          -0.00950   0.00157   0.02019
           D3           0.00932   0.00045  -0.01705   0.01794
           D4          -0.01150  -0.01916   0.00157   0.00045   0.02118
 ITU=  1  0
 Use linear search instead of GDIIS.
     Eigenvalues ---    0.00382   0.04672   0.05981   0.13439   0.17540
     Eigenvalues ---    0.21552   0.21923   0.36641   0.37533   0.38309
     Eigenvalues ---    0.38559   0.42993
 RFO step:  Lambda=-5.04799425D-05 EMin= 3.82144807D-03
 Quartic linear search produced a step of  0.00131.
 Iteration  1 RMS(Cart)=  0.00746256 RMS(Int)=  0.00006905
 Iteration  2 RMS(Cart)=  0.00005331 RMS(Int)=  0.00003249
 Iteration  3 RMS(Cart)=  0.00000000 RMS(Int)=  0.00003249
 ITry= 1 IFail=0 DXMaxC= 1.59D-02 DCOld= 1.00D+10 DXMaxT= 5.05D-01 DXLimC= 3.00D+00 Rises=F
 Variable       Old X    -DE/DX   Delta X   Delta X   Delta X     New X
                                 (Linear)    (Quad)   (Total)
    R1        2.71538   0.00104  -0.00005  -0.00249  -0.00254   2.71284
    R2        1.91270   0.00140  -0.00006   0.00252   0.00246   1.91516
    R3        1.92171   0.00105  -0.00006   0.00203   0.00198   1.92369
    R4        1.92171   0.00105  -0.00006   0.00203   0.00198   1.92369
    R5        1.91270   0.00140  -0.00006   0.00252   0.00246   1.91516
    A1        1.86751   0.00060   0.00004   0.00508   0.00509   1.87260
    A2        1.95038   0.00063   0.00006   0.00590   0.00594   1.95632
    A3        1.86932   0.00015   0.00006   0.00695   0.00694   1.87626
    A4        1.95038   0.00063   0.00006   0.00590   0.00594   1.95632
    A5        1.86751   0.00060   0.00004   0.00508   0.00509   1.87260
    A6        1.86932   0.00015   0.00006   0.00695   0.00694   1.87626
    D1       -1.58010   0.00001   0.00002   0.01088   0.01090  -1.56920
    D2        2.66207  -0.00088  -0.00010  -0.00379  -0.00394   2.65813
    D3        0.46091   0.00089   0.00014   0.02556   0.02574   0.48666
    D4       -1.58010   0.00001   0.00002   0.01088   0.01090  -1.56920
         Item               Value     Threshold  Converged?
 Maximum Force            0.001401     0.000450     NO 
 RMS     Force            0.000830     0.000300     NO 
 Maximum Displacement     0.015929     0.001800     NO 
 RMS     Displacement     0.007477     0.001200     NO 
 Predicted change in Energy=-2.531416D-05
 Lowest energy point so far.  Saving SCF results.
 GradGradGradGradGradGradGradGradGradGradGradGradGradGradGradGradGradGrad

 Leave Link  103 at Sat Feb 16 14:29:03 2019, MaxMem=   196608000 cpu:        18.9
 (Enter /cm/shared/c3ddb/gaussian/09.d01/g09/l202.exe)
                          Input orientation:                          
 ---------------------------------------------------------------------
 Center     Atomic      Atomic             Coordinates (Angstroms)
 Number     Number       Type             X           Y           Z
 ---------------------------------------------------------------------
      1          7           0       -0.652461    0.016394   -0.302938
      2          7           0        0.617511    0.053883    0.365364
      3          1           0       -1.131793   -0.820731    0.007803
      4          1           0       -1.237430    0.812780   -0.058295
      5          1           0        0.568035    0.548071    1.253958
      6          1           0        1.257376    0.564455   -0.232119
 ---------------------------------------------------------------------
                    Distance matrix (angstroms):
                    1          2          3          4          5
     1  N    0.000000
     2  N    1.435571   0.000000
     3  H    1.013458   1.988181   0.000000
     4  H    1.017973   2.048467   1.638257   0.000000
     5  H    2.048467   1.017973   2.513153   2.247618   0.000000
     6  H    1.988181   1.013458   2.772081   2.513153   1.638257
                    6
     6  H    0.000000
 Stoichiometry    H4N2
 Framework group  C1[X(H4N2)]
 Deg. of freedom    12
 Full point group                 C1      NOp   1
 RotChk:  IX=0 Diff= 3.24D-03
 Largest Abelian subgroup         C1      NOp   1
 Largest concise Abelian subgroup C1      NOp   1
                         Standard orientation:                         
 ---------------------------------------------------------------------
 Center     Atomic      Atomic             Coordinates (Angstroms)
 Number     Number       Type             X           Y           Z
 ---------------------------------------------------------------------
      1          7           0        0.710770   -0.075981    0.100111
      2          7           0       -0.710770   -0.075981   -0.100111
      3          1           0        1.140103   -0.307623   -0.788209
      4          1           0        1.058136    0.839488    0.378540
      5          1           0       -1.058136    0.839486   -0.378544
      6          1           0       -1.140103   -0.307619    0.788210
 ---------------------------------------------------------------------
 Rotational constants (GHZ):    144.2593119     24.2735546     24.2421129
 Leave Link  202 at Sat Feb 16 14:29:03 2019, MaxMem=   196608000 cpu:         0.3
 (Enter /cm/shared/c3ddb/gaussian/09.d01/g09/l301.exe)
 Standard basis: 6-311G(2d,d,p) (5D, 7F)
 Ernie: Thresh=  0.10000D-02 Tol=  0.10000D-05 Strict=F.
 There are    62 symmetry adapted cartesian basis functions of A   symmetry.
 There are    60 symmetry adapted basis functions of A   symmetry.
    60 basis functions,    96 primitive gaussians,    62 cartesian basis functions
     9 alpha electrons        9 beta electrons
       nuclear repulsion energy        41.4864056829 Hartrees.
 IExCor=  402 DFT=T Ex+Corr=B3LYP ExCW=0 ScaHFX=  0.200000
 ScaDFX=  0.800000  0.720000  1.000000  0.810000 ScalE2=  1.000000  1.000000
 IRadAn=      0 IRanWt=     -1 IRanGd=            0 ICorTp=0 IEmpDi=  4
 NAtoms=    6 NActive=    6 NUniq=    6 SFac= 1.00D+00 NAtFMM=   60 NAOKFM=F Big=F
 Integral buffers will be    131072 words long.
 Raffenetti 2 integral format.
 Two-electron integral symmetry is turned on.
 Leave Link  301 at Sat Feb 16 14:29:04 2019, MaxMem=   196608000 cpu:         0.4
 (Enter /cm/shared/c3ddb/gaussian/09.d01/g09/l302.exe)
 NPDir=0 NMtPBC=     1 NCelOv=     1 NCel=       1 NClECP=     1 NCelD=      1
         NCelK=      1 NCelE2=     1 NClLst=     1 CellRange=     0.0.
 One-electron integrals computed using PRISM.
 NBasis=    60 RedAO= T EigKep=  5.92D-03  NBF=    60
 NBsUse=    60 1.00D-06 EigRej= -1.00D+00 NBFU=    60
 Precomputing XC quadrature grid using
 IXCGrd= 4 IRadAn=           0 IRanWt=          -1 IRanGd=           0 AccXCQ= 0.00D+00.
 Generated NRdTot=       0 NPtTot=           0 NUsed=           0 NTot=          32
 NSgBfM=    62    62    62    62    62 MxSgAt=     6 MxSgA2=     6.
 Leave Link  302 at Sat Feb 16 14:29:04 2019, MaxMem=   196608000 cpu:         5.4
 (Enter /cm/shared/c3ddb/gaussian/09.d01/g09/l303.exe)
 DipDrv:  MaxL=1.
 Leave Link  303 at Sat Feb 16 14:29:05 2019, MaxMem=   196608000 cpu:         1.0
 (Enter /cm/shared/c3ddb/gaussian/09.d01/g09/l401.exe)
 Initial guess from the checkpoint file:  "check.chk"
 B after Tr=     0.000000    0.000000    0.000000
         Rot=    1.000000    0.000000    0.000120    0.000000 Ang=   0.01 deg.
 Guess basis will be translated and rotated to current coordinates.
 JPrj=2 DoOrth=T DoCkMO=T.
 Leave Link  401 at Sat Feb 16 14:29:05 2019, MaxMem=   196608000 cpu:         3.8
 (Enter /cm/shared/c3ddb/gaussian/09.d01/g09/l502.exe)
 Closed shell SCF:
 Using DIIS extrapolation, IDIIS=  1040.
 Integral symmetry usage will be decided dynamically.
 Keep R1 ints in memory in canonical form, NReq=2575347.
 IVT=       18440 IEndB=       18440 NGot=   196608000 MDV=   194914196
 LenX=   194914196 LenY=   194909911
 Requested convergence on RMS density matrix=1.00D-08 within  64 cycles.
 Requested convergence on MAX density matrix=1.00D-06.
 Requested convergence on             energy=1.00D-06.
 No special actions if energy rises.
 FoFCou: FMM=F IPFlag=           0 FMFlag=           0 FMFlg1=           0
         NFxFlg=           0 DoJE=F BraDBF=F KetDBF=F FulRan=T
         wScrn=  0.000000 ICntrl=     600 IOpCl=  0 I1Cent=           0 NGrid=           0
         NMat0=    1 NMatS0=   1830 NMatT0=    0 NMatD0=    1 NMtDS0=    0 NMtDT0=    0
 Symmetry not used in FoFCou.

 Cycle   1  Pass 1  IDiag  1:
 E= -111.901495972126    
 DIIS: error= 6.47D-04 at cycle   1 NSaved=   1.
 NSaved= 1 IEnMin= 1 EnMin= -111.901495972126     IErMin= 1 ErrMin= 6.47D-04
 ErrMax= 6.47D-04  0.00D+00 EMaxC= 1.00D-01 BMatC= 2.94D-05 BMatP= 2.94D-05
 IDIUse=3 WtCom= 9.94D-01 WtEn= 6.47D-03
 Coeff-Com:  0.100D+01
 Coeff-En:   0.100D+01
 Coeff:      0.100D+01
 Gap=     0.572 Goal=   None    Shift=    0.000
 RMSDP=1.11D-04 MaxDP=1.23D-03              OVMax= 2.99D-03

 Cycle   2  Pass 1  IDiag  1:
 E= -111.901531868030     Delta-E=       -0.000035895904 Rises=F Damp=F
 DIIS: error= 6.59D-05 at cycle   2 NSaved=   2.
 NSaved= 2 IEnMin= 2 EnMin= -111.901531868030     IErMin= 2 ErrMin= 6.59D-05
 ErrMax= 6.59D-05  0.00D+00 EMaxC= 1.00D-01 BMatC= 2.51D-07 BMatP= 2.94D-05
 IDIUse=1 WtCom= 1.00D+00 WtEn= 0.00D+00
 Coeff-Com: -0.423D-01 0.104D+01
 Coeff:     -0.423D-01 0.104D+01
 Gap=     0.283 Goal=   None    Shift=    0.000
 RMSDP=1.50D-05 MaxDP=1.63D-04 DE=-3.59D-05 OVMax= 3.50D-04

 Cycle   3  Pass 1  IDiag  1:
 E= -111.901532193836     Delta-E=       -0.000000325806 Rises=F Damp=F
 DIIS: error= 2.60D-05 at cycle   3 NSaved=   3.
 NSaved= 3 IEnMin= 3 EnMin= -111.901532193836     IErMin= 3 ErrMin= 2.60D-05
 ErrMax= 2.60D-05  0.00D+00 EMaxC= 1.00D-01 BMatC= 3.32D-08 BMatP= 2.51D-07
 IDIUse=1 WtCom= 1.00D+00 WtEn= 0.00D+00
 Coeff-Com: -0.159D-01 0.275D+00 0.741D+00
 Coeff:     -0.159D-01 0.275D+00 0.741D+00
 Gap=     0.283 Goal=   None    Shift=    0.000
 RMSDP=3.58D-06 MaxDP=3.34D-05 DE=-3.26D-07 OVMax= 6.65D-05

 Cycle   4  Pass 1  IDiag  1:
 E= -111.901532223215     Delta-E=       -0.000000029379 Rises=F Damp=F
 DIIS: error= 4.84D-06 at cycle   4 NSaved=   4.
 NSaved= 4 IEnMin= 4 EnMin= -111.901532223215     IErMin= 4 ErrMin= 4.84D-06
 ErrMax= 4.84D-06  0.00D+00 EMaxC= 1.00D-01 BMatC= 1.08D-09 BMatP= 3.32D-08
 IDIUse=1 WtCom= 1.00D+00 WtEn= 0.00D+00
 Coeff-Com: -0.300D-03-0.972D-02 0.120D+00 0.890D+00
 Coeff:     -0.300D-03-0.972D-02 0.120D+00 0.890D+00
 Gap=     0.283 Goal=   None    Shift=    0.000
 RMSDP=8.55D-07 MaxDP=6.77D-06 DE=-2.94D-08 OVMax= 1.60D-05

 Cycle   5  Pass 1  IDiag  1:
 E= -111.901532223983     Delta-E=       -0.000000000767 Rises=F Damp=F
 DIIS: error= 2.92D-06 at cycle   5 NSaved=   5.
 NSaved= 5 IEnMin= 5 EnMin= -111.901532223983     IErMin= 5 ErrMin= 2.92D-06
 ErrMax= 2.92D-06  0.00D+00 EMaxC= 1.00D-01 BMatC= 4.14D-10 BMatP= 1.08D-09
 IDIUse=1 WtCom= 1.00D+00 WtEn= 0.00D+00
 Coeff-Com:  0.280D-03-0.143D-01 0.440D-01 0.499D+00 0.471D+00
 Coeff:      0.280D-03-0.143D-01 0.440D-01 0.499D+00 0.471D+00
 Gap=     0.283 Goal=   None    Shift=    0.000
 RMSDP=2.18D-07 MaxDP=2.81D-06 DE=-7.67D-10 OVMax= 4.77D-06

 Cycle   6  Pass 1  IDiag  1:
 E= -111.901532224324     Delta-E=       -0.000000000341 Rises=F Damp=F
 DIIS: error= 1.97D-07 at cycle   6 NSaved=   6.
 NSaved= 6 IEnMin= 6 EnMin= -111.901532224324     IErMin= 6 ErrMin= 1.97D-07
 ErrMax= 1.97D-07  0.00D+00 EMaxC= 1.00D-01 BMatC= 1.99D-12 BMatP= 4.14D-10
 IDIUse=1 WtCom= 1.00D+00 WtEn= 0.00D+00
 Coeff-Com:  0.105D-03-0.261D-02-0.247D-02 0.159D-01 0.563D-01 0.933D+00
 Coeff:      0.105D-03-0.261D-02-0.247D-02 0.159D-01 0.563D-01 0.933D+00
 Gap=     0.283 Goal=   None    Shift=    0.000
 RMSDP=3.69D-08 MaxDP=3.61D-07 DE=-3.41D-10 OVMax= 1.13D-06

 Cycle   7  Pass 1  IDiag  1:
 E= -111.901532224326     Delta-E=       -0.000000000002 Rises=F Damp=F
 DIIS: error= 4.09D-08 at cycle   7 NSaved=   7.
 NSaved= 7 IEnMin= 7 EnMin= -111.901532224326     IErMin= 7 ErrMin= 4.09D-08
 ErrMax= 4.09D-08  0.00D+00 EMaxC= 1.00D-01 BMatC= 1.01D-13 BMatP= 1.99D-12
 IDIUse=1 WtCom= 1.00D+00 WtEn= 0.00D+00
 Coeff-Com:  0.179D-04-0.166D-03-0.131D-02-0.859D-02 0.290D-02 0.218D+00
 Coeff-Com:  0.789D+00
 Coeff:      0.179D-04-0.166D-03-0.131D-02-0.859D-02 0.290D-02 0.218D+00
 Coeff:      0.789D+00
 Gap=     0.283 Goal=   None    Shift=    0.000
 RMSDP=7.12D-09 MaxDP=5.36D-08 DE=-2.07D-12 OVMax= 1.79D-07

 SCF Done:  E(RB3LYP) =  -111.901532224     A.U. after    7 cycles
            NFock=  7  Conv=0.71D-08     -V/T= 2.0030
 KE= 1.115654908031D+02 PE=-3.449658769140D+02 EE= 8.001244820369D+01
 Leave Link  502 at Sat Feb 16 14:29:09 2019, MaxMem=   196608000 cpu:        21.3
 (Enter /cm/shared/c3ddb/gaussian/09.d01/g09/l508.exe)
 QCSCF skips out because SCF is already converged.
 Leave Link  508 at Sat Feb 16 14:29:09 2019, MaxMem=   196608000 cpu:         0.0
 (Enter /cm/shared/c3ddb/gaussian/09.d01/g09/l701.exe)
 Compute integral first derivatives.
 ... and contract with generalized density number  0.
 Leave Link  701 at Sat Feb 16 14:29:10 2019, MaxMem=   196608000 cpu:         4.4
 (Enter /cm/shared/c3ddb/gaussian/09.d01/g09/l702.exe)
 L702 exits ... SP integral derivatives will be done elsewhere.
 Leave Link  702 at Sat Feb 16 14:29:10 2019, MaxMem=   196608000 cpu:         0.2
 (Enter /cm/shared/c3ddb/gaussian/09.d01/g09/l703.exe)
 Compute integral first derivatives, UseDBF=F ICtDFT=           0.
 Integral derivatives from FoFJK, PRISM(SPDF).
 Calling FoFJK, ICntrl=      2127 FMM=F ISym2X=0 I1Cent= 0 IOpClX= 0 NMat=1 NMatS=1 NMatT=0.
 FoFJK:  IHMeth= 1 ICntrl=    2127 DoSepK=F KAlg= 0 I1Cent=   0 FoldK=F
 IRaf=         0 NMat=   1 IRICut=       1 DoRegI=T DoRafI=F ISym2E= 0.
 FoFCou: FMM=F IPFlag=           0 FMFlag=      100000 FMFlg1=         800
         NFxFlg=           0 DoJE=F BraDBF=F KetDBF=F FulRan=T
         wScrn=  0.000000 ICntrl=    2127 IOpCl=  0 I1Cent=           0 NGrid=           0
         NMat0=    1 NMatS0=      1 NMatT0=    0 NMatD0=    1 NMtDS0=    0 NMtDT0=    0
 Symmetry not used in FoFCou.
 Leave Link  703 at Sat Feb 16 14:29:11 2019, MaxMem=   196608000 cpu:         6.5
 (Enter /cm/shared/c3ddb/gaussian/09.d01/g09/l716.exe)
 Dipole        = 1.15710055D-08 8.12616096D-01-2.04290982D-06
 ***** Axes restored to original set *****
 -------------------------------------------------------------------
 Center     Atomic                   Forces (Hartrees/Bohr)
 Number     Number              X              Y              Z
 -------------------------------------------------------------------
      1        7          -0.000203126   -0.000095742    0.000197423
      2        7           0.000116428    0.000272093   -0.000042569
      3        1          -0.000011013   -0.000028194   -0.000139473
      4        1          -0.000012642    0.000011653   -0.000057044
      5        1           0.000028382   -0.000043673    0.000028929
      6        1           0.000081970   -0.000116137    0.000012733
 -------------------------------------------------------------------
 Cartesian Forces:  Max     0.000272093 RMS     0.000112211
 Leave Link  716 at Sat Feb 16 14:29:11 2019, MaxMem=   196608000 cpu:         0.2
 (Enter /cm/shared/c3ddb/gaussian/09.d01/g09/l103.exe)

 GradGradGradGradGradGradGradGradGradGradGradGradGradGradGradGradGradGrad
 Berny optimization.
 Using GEDIIS/GDIIS optimizer.
 FormGI is forming the generalized inverse of G from B-inverse, IUseBI=4.
 Internal  Forces:  Max     0.000205248 RMS     0.000102329
 Search for a local minimum.
 Step number   3 out of a maximum of   25
 All quantities printed in internal units (Hartrees-Bohrs-Radians)
 RMS Force = .10233D-03 SwitMx=.10000D-02 MixMth= 2
 Mixed Optimization -- En-DIIS/RFO-DIIS
 Swapping is turned off.
 Update second derivatives using D2CorX and points    1    2    3
 DE= -2.76D-05 DEPred=-2.53D-05 R= 1.09D+00
 TightC=F SS=  1.41D+00  RLast= 3.41D-02 DXNew= 8.4853D-01 1.0223D-01
 Trust test= 1.09D+00 RLast= 3.41D-02 DXMaxT set to 5.05D-01
 The second derivative matrix:
                          R1        R2        R3        R4        R5
           R1           0.30910
           R2           0.00811   0.39727
           R3           0.00745   0.01264   0.37818
           R4           0.00745   0.01142   0.01289   0.37818
           R5           0.00811   0.01352   0.01142   0.01264   0.39727
           A1           0.05488   0.00146   0.00160   0.00261   0.00387
           A2           0.05084   0.00200  -0.00512  -0.00714  -0.00237
           A3          -0.02457   0.01024   0.01306  -0.00063  -0.00308
           A4           0.05084  -0.00237  -0.00714  -0.00512   0.00200
           A5           0.05488   0.00387   0.00261   0.00160   0.00146
           A6          -0.02457  -0.00308  -0.00063   0.01306   0.01024
           D1           0.00146  -0.00722  -0.00916   0.00688   0.00875
           D2          -0.02113  -0.00841  -0.00948  -0.00948  -0.00841
           D3           0.02406   0.00994   0.00721   0.00721   0.00994
           D4           0.00146   0.00875   0.00688  -0.00916  -0.00722
                          A1        A2        A3        A4        A5
           A1           0.18209
           A2          -0.03105   0.18627
           A3          -0.05242  -0.04935   0.05766
           A4          -0.00015  -0.00564   0.00014   0.18627
           A5           0.01593  -0.00015  -0.01086  -0.03105   0.18209
           A6          -0.01086   0.00014   0.00143  -0.04935  -0.05242
           D1          -0.00947  -0.00623  -0.01140   0.00567   0.00943
           D2          -0.00579  -0.00528  -0.00826  -0.00528  -0.00579
           D3           0.00575   0.00472   0.00828   0.00472   0.00575
           D4           0.00943   0.00567   0.01142  -0.00623  -0.00947
                          A6        D1        D2        D3        D4
           A6           0.05766
           D1           0.01142   0.02121
           D2          -0.00826   0.00106   0.01740
           D3           0.00828   0.00102  -0.01528   0.01731
           D4          -0.01140  -0.01913   0.00106   0.00102   0.02121
 ITU=  1  1  0
     Eigenvalues ---    0.00406   0.03948   0.05977   0.13415   0.17516
     Eigenvalues ---    0.21548   0.22044   0.36641   0.37446   0.37897
     Eigenvalues ---    0.38559   0.43298
 En-DIIS/RFO-DIIS IScMMF=        0 using points:     3    2
 RFO step:  Lambda=-4.74973991D-07.
 NNeg= 0 NP= 2 Switch=  2.50D-03 Rises=F DC=  2.76D-05 SmlDif=  1.00D-05
 RMS Error=  0.4006945856D-03 NUsed= 2 EDIIS=F
 DidBck=F Rises=F RFO-DIIS coefs:    1.11021   -0.11021
 Iteration  1 RMS(Cart)=  0.00345256 RMS(Int)=  0.00001074
 Iteration  2 RMS(Cart)=  0.00000852 RMS(Int)=  0.00000470
 Iteration  3 RMS(Cart)=  0.00000000 RMS(Int)=  0.00000470
 ITry= 1 IFail=0 DXMaxC= 6.67D-03 DCOld= 1.00D+10 DXMaxT= 5.05D-01 DXLimC= 3.00D+00 Rises=F
 Variable       Old X    -DE/DX   Delta X   Delta X   Delta X     New X
                                 (Linear)    (Quad)   (Total)
    R1        2.71284   0.00021  -0.00028   0.00012  -0.00016   2.71267
    R2        1.91516  -0.00002   0.00027  -0.00042  -0.00015   1.91501
    R3        1.92369   0.00000   0.00022  -0.00045  -0.00023   1.92346
    R4        1.92369   0.00000   0.00022  -0.00045  -0.00023   1.92346
    R5        1.91516  -0.00002   0.00027  -0.00042  -0.00015   1.91501
    A1        1.87260   0.00017   0.00056   0.00078   0.00134   1.87394
    A2        1.95632   0.00007   0.00065   0.00022   0.00087   1.95720
    A3        1.87626   0.00000   0.00077   0.00070   0.00146   1.87772
    A4        1.95632   0.00007   0.00065   0.00022   0.00087   1.95720
    A5        1.87260   0.00017   0.00056   0.00078   0.00134   1.87394
    A6        1.87626   0.00000   0.00077   0.00070   0.00146   1.87772
    D1       -1.56920  -0.00003   0.00120  -0.00864  -0.00744  -1.57664
    D2        2.65813  -0.00018  -0.00043  -0.01012  -0.01056   2.64757
    D3        0.48666   0.00012   0.00284  -0.00717  -0.00433   0.48233
    D4       -1.56920  -0.00003   0.00120  -0.00864  -0.00744  -1.57664
         Item               Value     Threshold  Converged?
 Maximum Force            0.000205     0.000450     YES
 RMS     Force            0.000102     0.000300     YES
 Maximum Displacement     0.006675     0.001800     NO 
[...]
         NMat0=    1 NMatS0=   5886 NMatT0=    0 NMatD0=    1 NMtDS0=    0 NMtDT0=    0
 Symmetry not used in FoFCou.

 Cycle   1  Pass 1  IDiag  1:
 E= -111.214606796841    
 DIIS: error= 9.58D-03 at cycle   1 NSaved=   1.
 NSaved= 1 IEnMin= 1 EnMin= -111.214606796841     IErMin= 1 ErrMin= 9.58D-03
 ErrMax= 9.58D-03  0.00D+00 EMaxC= 1.00D-01 BMatC= 1.94D-02 BMatP= 1.94D-02
 IDIUse=3 WtCom= 9.04D-01 WtEn= 9.58D-02
 Coeff-Com:  0.100D+01
 Coeff-En:   0.100D+01
 Coeff:      0.100D+01
 Gap=     0.642 Goal=   None    Shift=    0.000
 GapD=    0.642 DampG=2.000 DampE=1.000 DampFc=2.0000 IDamp=-1.
 RMSDP=2.03D-03 MaxDP=3.72D-02              OVMax= 1.41D-02

 Cycle   2  Pass 1  IDiag  1:
 E= -111.222543093405     Delta-E=       -0.007936296564 Rises=F Damp=F
 DIIS: error= 8.81D-04 at cycle   2 NSaved=   2.
 NSaved= 2 IEnMin= 2 EnMin= -111.222543093405     IErMin= 2 ErrMin= 8.81D-04
 ErrMax= 8.81D-04  0.00D+00 EMaxC= 1.00D-01 BMatC= 1.54D-04 BMatP= 1.94D-02
 IDIUse=3 WtCom= 9.91D-01 WtEn= 8.81D-03
 Coeff-Com: -0.685D-01 0.107D+01
 Coeff-En:   0.000D+00 0.100D+01
 Coeff:     -0.679D-01 0.107D+01
 Gap=     0.453 Goal=   None    Shift=    0.000
 RMSDP=2.93D-04 MaxDP=4.94D-03 DE=-7.94D-03 OVMax= 2.54D-03

 Cycle   3  Pass 1  IDiag  1:
 E= -111.222651817814     Delta-E=       -0.000108724409 Rises=F Damp=F
 DIIS: error= 3.48D-04 at cycle   3 NSaved=   3.
 NSaved= 3 IEnMin= 3 EnMin= -111.222651817814     IErMin= 3 ErrMin= 3.48D-04
 ErrMax= 3.48D-04  0.00D+00 EMaxC= 1.00D-01 BMatC= 7.28D-06 BMatP= 1.54D-04
 IDIUse=3 WtCom= 9.97D-01 WtEn= 3.48D-03
 Coeff-Com: -0.141D-01 0.154D+00 0.860D+00
 Coeff-En:   0.000D+00 0.000D+00 0.100D+01
 Coeff:     -0.140D-01 0.154D+00 0.860D+00
 Gap=     0.455 Goal=   None    Shift=    0.000
 RMSDP=3.46D-05 MaxDP=3.95D-04 DE=-1.09D-04 OVMax= 8.32D-04

 Cycle   4  Pass 1  IDiag  1:
 E= -111.222657879660     Delta-E=       -0.000006061846 Rises=F Damp=F
 DIIS: error= 8.39D-05 at cycle   4 NSaved=   4.
 NSaved= 4 IEnMin= 4 EnMin= -111.222657879660     IErMin= 4 ErrMin= 8.39D-05
 ErrMax= 8.39D-05  0.00D+00 EMaxC= 1.00D-01 BMatC= 7.67D-07 BMatP= 7.28D-06
 IDIUse=1 WtCom= 1.00D+00 WtEn= 0.00D+00
 Coeff-Com:  0.243D-02-0.460D-01 0.165D+00 0.878D+00
 Coeff:      0.243D-02-0.460D-01 0.165D+00 0.878D+00
 Gap=     0.454 Goal=   None    Shift=    0.000
 RMSDP=1.80D-05 MaxDP=3.34D-04 DE=-6.06D-06 OVMax= 2.91D-04

 Cycle   5  Pass 1  IDiag  1:
 E= -111.222658714779     Delta-E=       -0.000000835118 Rises=F Damp=F
 DIIS: error= 1.52D-05 at cycle   5 NSaved=   5.
 NSaved= 5 IEnMin= 5 EnMin= -111.222658714779     IErMin= 5 ErrMin= 1.52D-05
 ErrMax= 1.52D-05  0.00D+00 EMaxC= 1.00D-01 BMatC= 2.62D-08 BMatP= 7.67D-07
 IDIUse=1 WtCom= 1.00D+00 WtEn= 0.00D+00
 Coeff-Com:  0.581D-03-0.826D-02-0.316D-01 0.287D-01 0.101D+01
 Coeff:      0.581D-03-0.826D-02-0.316D-01 0.287D-01 0.101D+01
 Gap=     0.454 Goal=   None    Shift=    0.000
 RMSDP=5.01D-06 MaxDP=8.16D-05 DE=-8.35D-07 OVMax= 1.23D-04

 Cycle   6  Pass 1  IDiag  1:
 E= -111.222658776681     Delta-E=       -0.000000061903 Rises=F Damp=F
 DIIS: error= 5.34D-06 at cycle   6 NSaved=   6.
 NSaved= 6 IEnMin= 6 EnMin= -111.222658776681     IErMin= 6 ErrMin= 5.34D-06
 ErrMax= 5.34D-06  0.00D+00 EMaxC= 1.00D-01 BMatC= 2.55D-09 BMatP= 2.62D-08
 IDIUse=1 WtCom= 1.00D+00 WtEn= 0.00D+00
 Coeff-Com: -0.218D-03 0.382D-02-0.261D-02-0.649D-01-0.212D+00 0.128D+01
 Coeff:     -0.218D-03 0.382D-02-0.261D-02-0.649D-01-0.212D+00 0.128D+01
 Gap=     0.454 Goal=   None    Shift=    0.000
 RMSDP=2.40D-06 MaxDP=5.08D-05 DE=-6.19D-08 OVMax= 6.74D-05

 Cycle   7  Pass 1  IDiag  1:
 E= -111.222658786484     Delta-E=       -0.000000009802 Rises=F Damp=F
 DIIS: error= 1.81D-06 at cycle   7 NSaved=   7.
 NSaved= 7 IEnMin= 7 EnMin= -111.222658786484     IErMin= 7 ErrMin= 1.81D-06
 ErrMax= 1.81D-06  0.00D+00 EMaxC= 1.00D-01 BMatC= 2.07D-10 BMatP= 2.55D-09
 IDIUse=1 WtCom= 1.00D+00 WtEn= 0.00D+00
 Coeff-Com:  0.649D-04-0.134D-02 0.547D-02 0.260D-01 0.793D-02-0.501D+00
 Coeff-Com:  0.146D+01
 Coeff:      0.649D-04-0.134D-02 0.547D-02 0.260D-01 0.793D-02-0.501D+00
 Coeff:      0.146D+01
 Gap=     0.454 Goal=   None    Shift=    0.000
 RMSDP=3.93D-07 MaxDP=6.55D-06 DE=-9.80D-09 OVMax= 2.24D-05

 Cycle   8  Pass 1  IDiag  1:
 E= -111.222658787250     Delta-E=       -0.000000000767 Rises=F Damp=F
 DIIS: error= 3.08D-07 at cycle   8 NSaved=   8.
 NSaved= 8 IEnMin= 8 EnMin= -111.222658787250     IErMin= 8 ErrMin= 3.08D-07
 ErrMax= 3.08D-07  0.00D+00 EMaxC= 1.00D-01 BMatC= 4.69D-12 BMatP= 2.07D-10
 IDIUse=1 WtCom= 1.00D+00 WtEn= 0.00D+00
 Coeff-Com: -0.470D-05 0.121D-03-0.999D-03-0.281D-02 0.573D-02 0.635D-01
 Coeff-Com: -0.338D+00 0.127D+01
 Coeff:     -0.470D-05 0.121D-03-0.999D-03-0.281D-02 0.573D-02 0.635D-01
 Coeff:     -0.338D+00 0.127D+01
 Gap=     0.454 Goal=   None    Shift=    0.000
 RMSDP=9.39D-08 MaxDP=2.51D-06 DE=-7.67D-10 OVMax= 2.95D-06

 Cycle   9  Pass 1  IDiag  1:
 E= -111.222658787265     Delta-E=       -0.000000000015 Rises=F Damp=F
 DIIS: error= 5.29D-08 at cycle   9 NSaved=   9.
 NSaved= 9 IEnMin= 9 EnMin= -111.222658787265     IErMin= 9 ErrMin= 5.29D-08
 ErrMax= 5.29D-08  0.00D+00 EMaxC= 1.00D-01 BMatC= 1.37D-13 BMatP= 4.69D-12
 IDIUse=1 WtCom= 1.00D+00 WtEn= 0.00D+00
 Coeff-Com: -0.152D-05 0.303D-04-0.935D-04-0.603D-03-0.859D-03 0.110D-01
 Coeff-Com: -0.975D-02-0.147D+00 0.115D+01
 Coeff:     -0.152D-05 0.303D-04-0.935D-04-0.603D-03-0.859D-03 0.110D-01
 Coeff:     -0.975D-02-0.147D+00 0.115D+01
 Gap=     0.454 Goal=   None    Shift=    0.000
 RMSDP=1.45D-08 MaxDP=3.93D-07 DE=-1.47D-11 OVMax= 3.25D-07

 Cycle  10  Pass 1  IDiag  1:
 E= -111.222658787266     Delta-E=       -0.000000000001 Rises=F Damp=F
 DIIS: error= 1.37D-08 at cycle  10 NSaved=  10.
 NSaved=10 IEnMin=10 EnMin= -111.222658787266     IErMin=10 ErrMin= 1.37D-08
 ErrMax= 1.37D-08  0.00D+00 EMaxC= 1.00D-01 BMatC= 8.47D-15 BMatP= 1.37D-13
 IDIUse=1 WtCom= 1.00D+00 WtEn= 0.00D+00
 Coeff-Com:  0.514D-06-0.121D-04 0.689D-04 0.264D-03-0.338D-04-0.559D-02
 Coeff-Com:  0.181D-01-0.359D-01-0.224D+00 0.125D+01
 Coeff:      0.514D-06-0.121D-04 0.689D-04 0.264D-03-0.338D-04-0.559D-02
 Coeff:      0.181D-01-0.359D-01-0.224D+00 0.125D+01
 Gap=     0.454 Goal=   None    Shift=    0.000
 RMSDP=2.37D-09 MaxDP=5.01D-08 DE=-9.09D-13 OVMax= 1.28D-07

 SCF Done:  E(RHF) =  -111.222658787     A.U. after   10 cycles
            NFock= 10  Conv=0.24D-08     -V/T= 2.0014
 KE= 1.110623252605D+02 PE=-3.441148466013D+02 EE= 8.034236362354D+01
 Leave Link  502 at Sat Feb 16 14:37:45 2019, MaxMem=   196608000 cpu:       119.9
 (Enter /cm/shared/c3ddb/gaussian/09.d01/g09/l508.exe)
 QCSCF skips out because SCF is already converged.
 Leave Link  508 at Sat Feb 16 14:37:45 2019, MaxMem=   196608000 cpu:         0.0
 (Enter /cm/shared/c3ddb/gaussian/09.d01/g09/l801.exe)
 ExpMin= 3.60D-02 ExpMax= 6.29D+03 ExpMxC= 9.49D+02 IAcc=3 IRadAn=         5 AccDes= 0.00D+00
 HarFok:  IExCor=  205 AccDes= 0.00D+00 IRadAn=         5 IDoV=-2 UseB2=F ITyADJ=14
 ICtDFT= 12500011 ScaDFX=  1.000000  1.000000  1.000000  1.000000
 Largest valence mixing into a core orbital is  1.28D-04
 Largest core mixing into a valence orbital is  3.19D-05
 Range of M.O.s used for correlation:     3   108
 NBasis=   108 NAE=     9 NBE=     9 NFC=     2 NFV=     0
 NROrb=    106 NOA=     7 NOB=     7 NVA=    99 NVB=    99

 **** Warning!!: The largest alpha MO coefficient is  0.22525655D+02

 Leave Link  801 at Sat Feb 16 14:37:46 2019, MaxMem=   196608000 cpu:         3.1
 (Enter /cm/shared/c3ddb/gaussian/09.d01/g09/l906.exe)
 FulOut=F Deriv=F AODrv=F NAtomX=     6
   MMem=           0  MDisk=           7 MDiskD=           7
  W3Min=       81774 MinDsk=      237020 NBas6D=         118
 NBas2D=        7243    NTT=        7021    LW2=     2000000
    MDV=   196534965 MDiskM=        8243 NBas2p=        7243
 Disk-based method using OVN memory for  7 occupieds at a time.
 Permanent disk used for amplitudes and <ij||ab> integrals=     1164240 words.
 Estimated scratch disk usage=    17061639 words.
 IMap=   1   2   3   4   5   6   7
 Actual    scratch disk usage=    13298439 words.
 JobTyp=1 Pass  1:  I=   1 to   7 NPSUse=  8 ParTrn=T ParDer=T DoDerP=F.
 (rs|ai) integrals will be sorted in core.
 Spin components of T(2) and E(2):
     alpha-alpha T2 =       0.1510297467D-01 E2=     -0.5119530961D-01
     alpha-beta  T2 =       0.9154484126D-01 E2=     -0.3307149555D+00
     beta-beta   T2 =       0.1510297467D-01 E2=     -0.5119530961D-01
 The integrals were generated   1 times.
 ANorm=    0.1059127372D+01
 E2 =    -0.4331055748D+00 EUMP2 =    -0.11165576436204D+03
 Leave Link  906 at Sat Feb 16 14:38:07 2019, MaxMem=   196608000 cpu:       151.0
 (Enter /cm/shared/c3ddb/gaussian/09.d01/g09/l904.exe)

 Complete Basis Set (CBS) Extrapolation:
 M. R. Nyden and G. A. Petersson, JCP 75, 1843 (1981)
 G. A. Petersson and M. A. Al-Laham, JCP 94, 6081 (1991)
 G. A. Petersson, T. Tensfeldt, and J. A. Montgomery, JCP 94, 6091 (1991)
 J. A. Montgomery, J. W. Ochterski, and G. A. Petersson, JCP 101, 5900 (1994)
 
 Available Memory in CBS =  196608000
 Minimum Number of PNO for Extrapolation =  10
 Absolute Overlaps: IRadAn =     99590
 LocTrn: ILocal=3 LocCor=F DoCore=F.
 LocMO: Using population method
 Initial Trace= 0.70000000D+01 Initial TraceA= 0.23133763D+01
 RMSG= 0.51836183D-08
 There are a total of      299720 grid points.
 ElSum from         orbitals=        8.9999999508
 E2(CBS)=      -0.475607 CBS-Int=       0.014157 OIii=       3.823370
 Leave Link  904 at Sat Feb 16 14:38:10 2019, MaxMem=   196608000 cpu:        18.0
 (Enter /cm/shared/c3ddb/gaussian/09.d01/g09/l601.exe)
 Copying SCF densities to generalized density rwf, IOpCl= 0 IROHF=0.

 **********************************************************************

            Population analysis using the SCF density.

 **********************************************************************

 Orbital symmetries:
       Occupied  (A) (A) (A) (A) (A) (A) (A) (A) (A)
       Virtual   (A) (A) (A) (A) (A) (A) (A) (A) (A) (A) (A) (A)
                 (A) (A) (A) (A) (A) (A) (A) (A) (A) (A) (A) (A)
                 (A) (A) (A) (A) (A) (A) (A) (A) (A) (A) (A) (A)
                 (A) (A) (A) (A) (A) (A) (A) (A) (A) (A) (A) (A)
                 (A) (A) (A) (A) (A) (A) (A) (A) (A) (A) (A) (A)
                 (A) (A) (A) (A) (A) (A) (A) (A) (A) (A) (A) (A)
                 (A) (A) (A) (A) (A) (A) (A) (A) (A) (A) (A) (A)
                 (A) (A) (A) (A) (A) (A) (A) (A) (A) (A) (A) (A)
                 (A) (A) (A)
 The electronic state is 1-A.
 Alpha  occ. eigenvalues --  -15.57009 -15.56964  -1.25442  -1.01074  -0.67704
 Alpha  occ. eigenvalues --   -0.66718  -0.60724  -0.41741  -0.41014
 Alpha virt. eigenvalues --    0.04435   0.06245   0.07345   0.07623   0.19168
 Alpha virt. eigenvalues --    0.19691   0.20918   0.21384   0.22666   0.25306
 Alpha virt. eigenvalues --    0.26644   0.28146   0.29593   0.31102   0.32978
 Alpha virt. eigenvalues --    0.35946   0.46350   0.66093   0.69096   0.73047
 Alpha virt. eigenvalues --    0.73988   0.74992   0.78193   0.83514   0.84686
 Alpha virt. eigenvalues --    0.88100   0.89236   0.91433   0.95891   1.06868
 Alpha virt. eigenvalues --    1.08837   1.15148   1.16183   1.18826   1.22522
 Alpha virt. eigenvalues --    1.38504   1.39032   1.47104   1.57580   1.57973
 Alpha virt. eigenvalues --    1.61855   1.68122   1.75568   1.80327   1.89260
 Alpha virt. eigenvalues --    1.93709   2.01150   2.07545   2.12424   2.19093
 Alpha virt. eigenvalues --    2.20372   2.69395   2.86738   3.02833   3.12706
 Alpha virt. eigenvalues --    3.62047   3.65269   3.72309   3.72571   3.74209
 Alpha virt. eigenvalues --    3.82282   3.89827   3.93125   4.04345   4.11415
 Alpha virt. eigenvalues --    4.12257   4.18863   4.19031   4.23080   4.30835
 Alpha virt. eigenvalues --    4.34720   4.44421   4.70194   4.70746   4.79653
 Alpha virt. eigenvalues --    4.81870   5.00772   5.01420   5.13875   5.22106
 Alpha virt. eigenvalues --    5.36339   5.43886   5.54921   5.58007   5.58436
 Alpha virt. eigenvalues --    5.63232   5.64718   5.74707   5.80404   5.90940
 Alpha virt. eigenvalues --    5.93644   5.99671   6.07066   6.69235   6.92583
 Alpha virt. eigenvalues --    6.94961   6.98120  37.09779  37.12407
          Condensed to atoms (all electrons):
               1          2          3          4          5          6
     1  N    6.422549   0.187811   0.408855   0.444900  -0.089822  -0.050035
     2  N    0.187811   6.422549  -0.050035  -0.089822   0.444900   0.408855
     3  H    0.408855  -0.050035   0.516901  -0.061428   0.005002   0.004902
     4  H    0.444900  -0.089822  -0.061428   0.563162  -0.010272   0.005002
     5  H   -0.089822   0.444900   0.005002  -0.010272   0.563162  -0.061428
     6  H   -0.050035   0.408855   0.004902   0.005002  -0.061428   0.516901
 Mulliken charges:
               1
     1  N   -0.324259
     2  N   -0.324259
     3  H    0.175802
     4  H    0.148458
     5  H    0.148458
     6  H    0.175802
 Sum of Mulliken charges =   0.00000
 Mulliken charges with hydrogens summed into heavy atoms:
               1
     1  N    0.000000
     2  N    0.000000
 Electronic spatial extent (au):  <R**2>=             83.2427
 Charge=              0.0000 electrons
 Dipole moment (field-independent basis, Debye):
    X=              0.0000    Y=              2.0743    Z=              0.0000  Tot=              2.0743
 Quadrupole moment (field-independent basis, Debye-Ang):
   XX=            -12.3525   YY=            -13.0922   ZZ=            -13.2016
   XY=              0.0000   XZ=             -2.7217   YZ=              0.0000
 Traceless Quadrupole moment (field-independent basis, Debye-Ang):
   XX=              0.5296   YY=             -0.2101   ZZ=             -0.3195
   XY=              0.0000   XZ=             -2.7217   YZ=              0.0000
 Octapole moment (field-independent basis, Debye-Ang**2):
  XXX=              0.0000  YYY=              3.3001  ZZZ=              0.0000  XYY=              0.0000
  XXY=              2.8844  XXZ=              0.0000  XZZ=              0.0000  YZZ=              0.4531
  YYZ=              0.0000  XYZ=              2.9463
 Hexadecapole moment (field-independent basis, Debye-Ang**3):
 XXXX=            -62.0024 YYYY=            -18.9662 ZZZZ=            -19.2571 XXXY=              0.0000
 XXXZ=             -5.2396 YYYX=              0.0000 YYYZ=              0.0000 ZZZX=             -4.3082
 ZZZY=              0.0000 XXYY=            -13.4037 XXZZ=            -13.1318 YYZZ=             -6.3927
 XXYZ=              0.0000 YYXZ=             -0.3059 ZZXY=              0.0000
 N-N= 4.148749892995D+01 E-N=-3.441148465608D+02  KE= 1.110623252605D+02
 Leave Link  601 at Sat Feb 16 14:38:11 2019, MaxMem=   196608000 cpu:         1.3
 (Enter /cm/shared/c3ddb/gaussian/09.d01/g09/l9999.exe)
 1\1\GINC-NODE004\SP\RMP2-FC\CBSB3\H4N2\DUMINDA\16-Feb-2019\0\\#P Geom=
 AllCheck Guess=TCheck SCRF=Check MP2/CBSB3 CBSExtrap=(NMin=10,MinPop)\
 \name\\0,1\N,0,-0.6529049646,0.0170765359,-0.3019236901\N,0,0.61708020
 35,0.054980873,0.3659124271\H,0,-1.1314340261,-0.8216356493,0.00542381
 33\H,0,-1.2389069784,0.8125719554,-0.0573143014\H,0,0.5688388263,0.549
 6490073,1.2541811261\H,0,1.2585659394,0.5622102777,-0.232506375\\Versi
 on=AS64L-G09RevD.01\State=1-A\HF=-111.2226588\MP2=-111.6557644\E2(CBS)
 =-0.4756068\CBS-Int=-0.4614494\OIii=3.8233696\RMSD=2.370e-09\PG=C01 [X
 (H4N2)]\\@


 LENDING MONEY TO FRIENDS CAUSES THEM TO LOSE THEIR MEMORIES.

    --  PETER'S THEORY OF RECIPROCAL INHIBITION OF FISCAL RECALL
 Diagonal vibrational polarizability:
        0.0000000       0.0000000       0.0000000

 Complete Basis Set (CBS) Extrapolation:
 M. R. Nyden and G. A. Petersson, JCP 75, 1843 (1981)
 G. A. Petersson and M. A. Al-Laham, JCP 94, 6081 (1991)
 G. A. Petersson, T. Tensfeldt, and J. A. Montgomery, JCP 94, 6091 (1991)
 J. A. Montgomery, J. W. Ochterski, and G. A. Petersson, JCP 101, 5900 (1994)

 Temperature=               298.150000 Pressure=                       1.000000
 E(ZPE)=                      0.052741 E(Thermal)=                     0.056011
 E(SCF)=                   -111.222659 DE(MP2)=                       -0.433106
 DE(CBS)=                    -0.042501 DE(MP34)=                      -0.022147
 DE(CCSD)=                   -0.008949 DE(Int)=                        0.014157
 DE(Empirical)=              -0.022137
 CBS-QB3 (0 K)=            -111.684601 CBS-QB3 Energy=              -111.681331
 CBS-QB3 Enthalpy=         -111.680387 CBS-QB3 Free Energy=         -111.707208
 1\1\GINC-NODE004\Mixed\CBS-QB3\CBS-QB3\H4N2\DUMINDA\16-Feb-2019\0\\#P 
 opt=(noeigentest, calcfc) cbs-qb3 scf=xqc\\name\\0,1\N,0,-0.6529049646
 ,0.0170765359,-0.3019236901\N,0,0.6170802035,0.054980873,0.3659124271\
 H,0,-1.1314340261,-0.8216356493,0.0054238133\H,0,-1.2389069784,0.81257
 19554,-0.0573143014\H,0,0.5688388263,0.5496490073,1.2541811261\H,0,1.2
 585659394,0.5622102777,-0.232506375\\Version=AS64L-G09RevD.01\State=1-
 A\HF/CbsB3=-111.2226588\E2(CBS)/CbsB3=-0.4756068\CBS-Int/CbsB3=0.01415
 74\OIii/CbsB3=3.8233696\MP2/CbsB4=-111.5526354\MP4(SDQ)/CbsB4=-111.574
 7826\MP4(SDQ)/6-31+G(d')=-111.5330257\QCISD(T)/6-31+G(d')=-111.5419744
 \CBSQB3=-111.6846007\FreqCoord=-1.2338115739,0.0322699762,-0.570553087
 4,1.1661125866,0.1038987925,0.6914742759,-2.1381004468,-1.5526663582,0
 .0102495216,-2.3411948933,1.5355384589,-0.1083083331,1.0749495955,1.03
 8686093,2.3700588494,2.3783449456,1.062423454,-0.4393733728\PG=C01 [X(
 H4N2)]\NImag=0\\0.52574715,0.01786493,0.67449639,-0.02526944,-0.014083
 92,0.19247488,-0.19796827,0.00851762,-0.02676659,0.49081153,-0.0384976
 0,-0.07257735,-0.02002924,0.14696552,0.29382873,-0.08002099,0.00432163
 ,-0.09305300,-0.11040668,0.05543830,0.60807816,-0.12516054,-0.13549650
 ,0.04298763,-0.02952236,-0.02602777,0.01061016,0.15010220,-0.13164229,
 -0.31335594,0.09170913,0.00058938,0.00759805,0.00033324,0.14463436,0.3
 3320668,0.06879007,0.14149760,-0.05744862,-0.01855431,-0.01774180,-0.0
 0089649,-0.04330814,-0.10525095,0.06127257,-0.15970299,0.15035744,0.03
 829212,-0.03113452,0.02110619,0.00544623,0.01174296,-0.01521283,-0.002
 37501,0.17923155,0.14202812,-0.28162803,-0.06519154,-0.00237908,0.0094
 7838,0.00107590,0.02103697,-0.02758839,-0.01452409,-0.15833077,0.29683
 064,0.06914685,-0.11088241,-0.04323471,-0.02419231,0.01701910,-0.00411
 203,-0.00524696,0.01372650,-0.00191758,-0.04106868,0.07779550,0.046737
 69,-0.01183847,-0.01954743,-0.03882268,-0.06071488,0.00723371,0.047301
 57,-0.00084337,-0.00001338,-0.00276114,0.00283584,-0.00139913,-0.00072
 363,0.07120643,0.00496634,-0.00261152,0.00789568,0.00185798,-0.1149587
 3,-0.19281385,-0.00144486,-0.00123161,-0.00367824,-0.00101745,0.002649
 69,0.00346578,-0.00291525,0.11153991,-0.01035541,-0.00862332,-0.011318
 18,0.03205467,-0.13945018,-0.30889212,0.00010905,0.00071367,-0.0008974
 2,0.00099695,0.00064756,0.00278392,-0.02669873,0.16346413,0.34005355,-
 0.03107687,-0.02169607,0.00957896,-0.17147150,-0.11078006,0.12706971,-
 0.00631887,0.00164475,-0.00179147,-0.00297283,-0.00095611,0.00208474,-
 0.00064554,-0.00144675,0.00389348,0.21248562,0.00528049,-0.00432356,-0
 .00030011,-0.15555141,-0.12336909,0.13164479,-0.00270220,0.00137121,-0
 .00030252,0.00309741,0.00025771,-0.00112447,0.01664147,0.00461227,-0.0
 1675188,0.13323424,0.12145146,-0.02229108,-0.01222958,0.01257963,0.147
 86523,0.10476383,-0.20112452,-0.00515175,-0.00123158,-0.00011245,-0.00
 129160,0.00019666,-0.00025729,0.02170461,0.02166650,-0.02172975,-0.140
 83541,-0.11316582,0.21064437\\-0.00000222,-0.00000283,0.00000338,0.000
 00162,0.00000406,-0.00000230,0.00000080,0.00000586,-0.00000459,0.00000
 244,0.00000216,-0.00000415,-0.00000113,-0.00000482,0.00000181,-0.00000
 151,-0.00000443,0.00000584\\\@
 Job cpu time:       0 days  0 hours  5 minutes 19.7 seconds.
 File lengths (MBytes):  RWF=    119 Int=      0 D2E=      0 Chk=      2 Scr=      1
 Normal termination of Gaussian 09 at Sat Feb 16 14:38:11 2019.
