 Entering Gaussian System, Link 0=g09
 Initial command:
 /cm/shared/c3ddb/gaussian/09.d01/g09/l1.exe "/scratch/users/duminda/g09/a1685-7322575/Gau-8490.inp" -scrdir="/scratch/users/duminda/g09/a1685-7322575/"
 Entering Link 1 = /cm/shared/c3ddb/gaussian/09.d01/g09/l1.exe PID=      8491.
  
 Copyright (c) 1988,1990,1992,1993,1995,1998,2003,2009,2013,
            Gaussian, Inc.  All Rights Reserved.
  
 This is part of the Gaussian(R) 09 program.  It is based on
 the Gaussian(R) 03 system (copyright 2003, Gaussian, Inc.),
 the Gaussian(R) 98 system (copyright 1998, Gaussian, Inc.),
 the Gaussian(R) 94 system (copyright 1995, Gaussian, Inc.),
 the Gaussian 92(TM) system (copyright 1992, Gaussian, Inc.),
 the Gaussian 90(TM) system (copyright 1990, Gaussian, Inc.),
 the Gaussian 88(TM) system (copyright 1988, Gaussian, Inc.),
 the Gaussian 86(TM) system (copyright 1986, Carnegie Mellon
 University), and the Gaussian 82(TM) system (copyright 1983,
 Carnegie Mellon University). Gaussian is a federally registered
 trademark of Gaussian, Inc.
  
 This software contains proprietary and confidential information,
 including trade secrets, belonging to Gaussian, Inc.
  
 This software is provided under written license and may be
 used, copied, transmitted, or stored only in accord with that
 written license.
  
 The following legend is applicable only to US Government
 contracts under FAR:
  
                    RESTRICTED RIGHTS LEGEND
  
 Use, reproduction and disclosure by the US Government is
 subject to restrictions as set forth in subparagraphs (a)
 and (c) of the Commercial Computer Software - Restricted
 Rights clause in FAR 52.227-19.
  
 Gaussian, Inc.
 340 Quinnipiac St., Bldg. 40, Wallingford CT 06492
  
  
 ---------------------------------------------------------------
 Warning -- This program may not be used in any manner that
 competes with the business of Gaussian, Inc. or will provide
 assistance to any competitor of Gaussian, Inc.  The licensee
 of this program is prohibited from giving any competitor of
 Gaussian, Inc. access to this program.  By using this program,
 the user acknowledges that Gaussian, Inc. is engaged in the
 business of creating and licensing software in the field of
 computational chemistry and represents and warrants to the
 licensee that it is not a competitor of Gaussian, Inc. and that
 it will not use this program in any manner prohibited above.
 ---------------------------------------------------------------
  

 Cite this work as:
 Gaussian 09, Revision D.01,
 M. J. Frisch, G. W. Trucks, H. B. Schlegel, G. E. Scuseria, 
 M. A. Robb, J. R. Cheeseman, G. Scalmani, V. Barone, B. Mennucci, 
 G. A. Petersson, H. Nakatsuji, M. Caricato, X. Li, H. P. Hratchian, 
 A. F. Izmaylov, J. Bloino, G. Zheng, J. L. Sonnenberg, M. Hada, 
 M. Ehara, K. Toyota, R. Fukuda, J. Hasegawa, M. Ishida, T. Nakajima, 
 Y. Honda, O. Kitao, H. Nakai, T. Vreven, J. A. Montgomery, Jr., 
 J. E. Peralta, F. Ogliaro, M. Bearpark, J. J. Heyd, E. Brothers, 
 K. N. Kudin, V. N. Staroverov, T. Keith, R. Kobayashi, J. Normand, 
 K. Raghavachari, A. Rendell, J. C. Burant, S. S. Iyengar, J. Tomasi, 
 M. Cossi, N. Rega, J. M. Millam, M. Klene, J. E. Knox, J. B. Cross, 
 V. Bakken, C. Adamo, J. Jaramillo, R. Gomperts, R. E. Stratmann, 
 O. Yazyev, A. J. Austin, R. Cammi, C. Pomelli, J. W. Ochterski, 
 R. L. Martin, K. Morokuma, V. G. Zakrzewski, G. A. Voth, 
 P. Salvador, J. J. Dannenberg, S. Dapprich, A. D. Daniels, 
 O. Farkas, J. B. Foresman, J. V. Ortiz, J. Cioslowski, 
 and D. J. Fox, Gaussian, Inc., Wallingford CT, 2013.
 
 ******************************************
 Gaussian 09:  AS64L-G09RevD.01 24-Apr-2013
                16-Feb-2019 
 ******************************************
 %chk=check.chk
 %mem=1500mb
 %nproc=8
 Will use up to    8 processors via shared memory.
 --------------------------------------------
 #P opt=(noeigentest, calcfc) cbs-qb3 scf=xqc
 --------------------------------------------
 1/10=4,11=1,14=-1,18=20,19=15,26=3,38=1/1,3;
 2/9=110,12=2,17=6,18=5,40=1/2;
 3/5=4,6=6,7=700,11=2,16=1,25=1,30=1,71=2,74=-5,140=1/1,2,3;
 4//1;
 5/5=2,8=3,13=1,38=5/2,8;
 8/6=4,10=90,11=11/1;
 11/6=1,8=1,9=11,15=111,16=1/1,2,10;
 10/6=1,13=1/2;
 6/7=2,8=2,9=2,10=2,28=1/1;
 7/10=1,18=20,25=1/1,2,3,16;
 1/10=4,11=1,14=-1,18=20,19=15,26=3/3(2);
 2/9=110/2;
 99//99;
 2/9=110/2;
 3/5=4,6=6,7=700,11=2,16=1,25=1,30=1,71=1,74=-5/1,2,3;
 4/5=5,16=3,69=1/1;
 5/5=2,8=3,13=1,38=5/2,8;
 7//1,2,3,16;
 1/11=1,14=-1,18=20,19=15,26=3/3(-5);
 2/9=110/2;
 6/7=2,8=2,9=2,10=2,19=2,28=1/1;
 99/9=1/99;
 Leave Link    1 at Sat Feb 16 13:47:55 2019, MaxMem=   196608000 cpu:         0.8
 (Enter /cm/shared/c3ddb/gaussian/09.d01/g09/l101.exe)
 ----
 name
 ----
 Symbolic Z-matrix:
 Charge =  0 Multiplicity = 1
 N                     0.8307    0.17139  -0.29146 
 C                    -0.58251  -0.03063   0.0565 
 H                    -1.08282  -0.5675   -0.76502 
 H                    -0.77439  -0.59874   0.9965 
 H                    -1.07345   0.95061   0.1544 
 H                     1.33679  -0.68285  -0.51169 
 H                     1.34568   0.75771   0.36076 
 
 NAtoms=      7 NQM=        7 NQMF=       0 NMMI=      0 NMMIF=      0
                NMic=       0 NMicF=      0.
                    Isotopes and Nuclear Properties:
 (Nuclear quadrupole moments (NQMom) in fm**2, nuclear magnetic moments (NMagM)
  in nuclear magnetons)

  Atom         1           2           3           4           5           6           7
 IAtWgt=          14          12           1           1           1           1           1
 AtmWgt=  14.0030740  12.0000000   1.0078250   1.0078250   1.0078250   1.0078250   1.0078250
 NucSpn=           2           0           1           1           1           1           1
 AtZEff=   0.0000000   0.0000000   0.0000000   0.0000000   0.0000000   0.0000000   0.0000000
 NQMom=    2.0440000   0.0000000   0.0000000   0.0000000   0.0000000   0.0000000   0.0000000
 NMagM=    0.4037610   0.0000000   2.7928460   2.7928460   2.7928460   2.7928460   2.7928460
 AtZNuc=   7.0000000   6.0000000   1.0000000   1.0000000   1.0000000   1.0000000   1.0000000
 Leave Link  101 at Sat Feb 16 13:47:56 2019, MaxMem=   196608000 cpu:         0.9
 (Enter /cm/shared/c3ddb/gaussian/09.d01/g09/l103.exe)

 GradGradGradGradGradGradGradGradGradGradGradGradGradGradGradGradGradGrad
 Berny optimization.
 Initialization pass.
                           ----------------------------
                           !    Initial Parameters    !
                           ! (Angstroms and Degrees)  !
 --------------------------                            --------------------------
 ! Name  Definition              Value          Derivative Info.                !
 --------------------------------------------------------------------------------
 ! R1    R(1,2)                  1.4694         calculate D2E/DX2 analytically  !
 ! R2    R(1,6)                  1.017          calculate D2E/DX2 analytically  !
 ! R3    R(1,7)                  1.017          calculate D2E/DX2 analytically  !
 ! R4    R(2,3)                  1.1016         calculate D2E/DX2 analytically  !
 ! R5    R(2,4)                  1.115          calculate D2E/DX2 analytically  !
 ! R6    R(2,5)                  1.1016         calculate D2E/DX2 analytically  !
 ! A1    A(2,1,6)              114.4813         calculate D2E/DX2 analytically  !
 ! A2    A(2,1,7)              114.4813         calculate D2E/DX2 analytically  !
 ! A3    A(6,1,7)              111.7841         calculate D2E/DX2 analytically  !
 ! A4    A(1,2,3)              109.1003         calculate D2E/DX2 analytically  !
 ! A5    A(1,2,4)              115.799          calculate D2E/DX2 analytically  !
 ! A6    A(1,2,5)              109.1003         calculate D2E/DX2 analytically  !
 ! A7    A(3,2,4)              107.5925         calculate D2E/DX2 analytically  !
 ! A8    A(3,2,5)              107.3378         calculate D2E/DX2 analytically  !
 ! A9    A(4,2,5)              107.5925         calculate D2E/DX2 analytically  !
 ! D1    D(6,1,2,3)            -56.0366         calculate D2E/DX2 analytically  !
 ! D2    D(6,1,2,4)             65.4742         calculate D2E/DX2 analytically  !
 ! D3    D(6,1,2,5)           -173.015          calculate D2E/DX2 analytically  !
 ! D4    D(7,1,2,3)            173.0149         calculate D2E/DX2 analytically  !
 ! D5    D(7,1,2,4)            -65.4742         calculate D2E/DX2 analytically  !
 ! D6    D(7,1,2,5)             56.0366         calculate D2E/DX2 analytically  !
 --------------------------------------------------------------------------------
 Trust Radius=3.00D-01 FncErr=1.00D-07 GrdErr=1.00D-06
 Number of steps in this run=     31 maximum allowed number of steps=    100.
 GradGradGradGradGradGradGradGradGradGradGradGradGradGradGradGradGradGrad

 Leave Link  103 at Sat Feb 16 13:47:56 2019, MaxMem=   196608000 cpu:         0.1
 (Enter /cm/shared/c3ddb/gaussian/09.d01/g09/l202.exe)
                          Input orientation:                          
 ---------------------------------------------------------------------
 Center     Atomic      Atomic             Coordinates (Angstroms)
 Number     Number       Type             X           Y           Z
 ---------------------------------------------------------------------
      1          7           0        0.830698    0.171393   -0.291461
      2          6           0       -0.582510   -0.030625    0.056500
      3          1           0       -1.082818   -0.567501   -0.765015
      4          1           0       -0.774390   -0.598735    0.996500
      5          1           0       -1.073452    0.950610    0.154402
      6          1           0        1.336793   -0.682851   -0.511688
      7          1           0        1.345680    0.757709    0.360761
 ---------------------------------------------------------------------
                    Distance matrix (angstroms):
                    1          2          3          4          5
     1  N    0.000000
     2  C    1.469369   0.000000
     3  H    2.105175   1.101558   0.000000
     4  H    2.197328   1.114974   1.788586   0.000000
     5  H    2.105175   1.101558   1.774845   1.788585   0.000000
     6  H    1.017037   2.105222   2.435569   2.595920   2.986830
     7  H    1.017038   2.105223   2.986830   2.595920   2.435569
                    6          7
     6  H    0.000000
     7  H    1.684179   0.000000
 Stoichiometry    CH5N
 Framework group  C1[X(CH5N)]
 Deg. of freedom    15
 Full point group                 C1      NOp   1
 Largest Abelian subgroup         C1      NOp   1
 Largest concise Abelian subgroup C1      NOp   1
                         Standard orientation:                         
 ---------------------------------------------------------------------
 Center     Atomic      Atomic             Coordinates (Angstroms)
 Number     Number       Type             X           Y           Z
 ---------------------------------------------------------------------
      1          7           0        0.750013    0.000000   -0.093526
      2          6           0       -0.715362    0.000000    0.014737
      3          1           0       -1.114924   -0.887423   -0.501269
      4          1           0       -1.125335    0.000001    1.051602
      5          1           0       -1.114923    0.887423   -0.501269
      6          1           0        1.198633   -0.842089    0.258597
      7          1           0        1.198633    0.842090    0.258596
 ---------------------------------------------------------------------
 Rotational constants (GHZ):    103.7250698     22.4242599     21.3255913
 Leave Link  202 at Sat Feb 16 13:47:56 2019, MaxMem=   196608000 cpu:         0.5
 (Enter /cm/shared/c3ddb/gaussian/09.d01/g09/l301.exe)
 Standard basis: 6-311G(2d,d,p) (5D, 7F)
 Ernie: Thresh=  0.10000D-02 Tol=  0.10000D-05 Strict=F.
 There are    68 symmetry adapted cartesian basis functions of A   symmetry.
 There are    66 symmetry adapted basis functions of A   symmetry.
    66 basis functions,   104 primitive gaussians,    68 cartesian basis functions
     9 alpha electrons        9 beta electrons
       nuclear repulsion energy        41.6445514481 Hartrees.
 IExCor=  402 DFT=T Ex+Corr=B3LYP ExCW=0 ScaHFX=  0.200000
 ScaDFX=  0.800000  0.720000  1.000000  0.810000 ScalE2=  1.000000  1.000000
 IRadAn=      0 IRanWt=     -1 IRanGd=            0 ICorTp=0 IEmpDi=  4
 NAtoms=    7 NActive=    7 NUniq=    7 SFac= 1.00D+00 NAtFMM=   60 NAOKFM=F Big=F
 Integral buffers will be    131072 words long.
 Raffenetti 2 integral format.
 Two-electron integral symmetry is turned on.
 Leave Link  301 at Sat Feb 16 13:47:56 2019, MaxMem=   196608000 cpu:         0.8
 (Enter /cm/shared/c3ddb/gaussian/09.d01/g09/l302.exe)
 NPDir=0 NMtPBC=     1 NCelOv=     1 NCel=       1 NClECP=     1 NCelD=      1
         NCelK=      1 NCelE2=     1 NClLst=     1 CellRange=     0.0.
 One-electron integrals computed using PRISM.
 NBasis=    66 RedAO= T EigKep=  6.24D-03  NBF=    66
 NBsUse=    66 1.00D-06 EigRej= -1.00D+00 NBFU=    66
 Precomputing XC quadrature grid using
 IXCGrd= 4 IRadAn=           0 IRanWt=          -1 IRanGd=           0 AccXCQ= 0.00D+00.
 Generated NRdTot=       0 NPtTot=           0 NUsed=           0 NTot=          32
 NSgBfM=    68    68    68    68    68 MxSgAt=     7 MxSgA2=     7.
 Leave Link  302 at Sat Feb 16 13:47:56 2019, MaxMem=   196608000 cpu:         1.8
 (Enter /cm/shared/c3ddb/gaussian/09.d01/g09/l303.exe)
 DipDrv:  MaxL=1.
 Leave Link  303 at Sat Feb 16 13:47:56 2019, MaxMem=   196608000 cpu:         0.3
 (Enter /cm/shared/c3ddb/gaussian/09.d01/g09/l401.exe)
 ExpMin= 1.03D-01 ExpMax= 6.29D+03 ExpMxC= 9.49D+02 IAcc=1 IRadAn=         1 AccDes= 0.00D+00
 Harris functional with IExCor=  402 and IRadAn=       1 diagonalized for initial guess.
 HarFok:  IExCor=  402 AccDes= 0.00D+00 IRadAn=         1 IDoV= 1 UseB2=F ITyADJ=14
 ICtDFT=  3500011 ScaDFX=  1.000000  1.000000  1.000000  1.000000
 FoFCou: FMM=F IPFlag=           0 FMFlag=      100000 FMFlg1=           0
         NFxFlg=           0 DoJE=T BraDBF=F KetDBF=T FulRan=T
         wScrn=  0.000000 ICntrl=     500 IOpCl=  0 I1Cent=   200000004 NGrid=           0
         NMat0=    1 NMatS0=      1 NMatT0=    0 NMatD0=    1 NMtDS0=    0 NMtDT0=    0
 Petite list used in FoFCou.
 Harris En= -95.9188285272168    
 JPrj=0 DoOrth=F DoCkMO=F.
 Leave Link  401 at Sat Feb 16 13:47:56 2019, MaxMem=   196608000 cpu:         1.8
 (Enter /cm/shared/c3ddb/gaussian/09.d01/g09/l502.exe)
 Closed shell SCF:
 Using DIIS extrapolation, IDIIS=  1040.
 Integral symmetry usage will be decided dynamically.
 Keep R1 ints in memory in canonical form, NReq=3356022.
 IVT=       20876 IEndB=       20876 NGot=   196608000 MDV=   194141759
 LenX=   194141759 LenY=   194136694
 Requested convergence on RMS density matrix=1.00D-08 within  64 cycles.
 Requested convergence on MAX density matrix=1.00D-06.
 Requested convergence on             energy=1.00D-06.
 No special actions if energy rises.
 FoFCou: FMM=F IPFlag=           0 FMFlag=           0 FMFlg1=           0
         NFxFlg=           0 DoJE=F BraDBF=F KetDBF=F FulRan=T
         wScrn=  0.000000 ICntrl=     600 IOpCl=  0 I1Cent=           0 NGrid=           0
         NMat0=    1 NMatS0=   2211 NMatT0=    0 NMatD0=    1 NMtDS0=    0 NMtDT0=    0
 Symmetry not used in FoFCou.
 Integral accuracy reduced to 1.0D-05 until final iterations.

 Cycle   1  Pass 0  IDiag  1:
 E= -95.7791574418262    
 DIIS: error= 4.96D-02 at cycle   1 NSaved=   1.
 NSaved= 1 IEnMin= 1 EnMin= -95.7791574418262     IErMin= 1 ErrMin= 4.96D-02
 ErrMax= 4.96D-02  0.00D+00 EMaxC= 1.00D-01 BMatC= 1.24D-01 BMatP= 1.24D-01
 IDIUse=3 WtCom= 5.04D-01 WtEn= 4.96D-01
 Coeff-Com:  0.100D+01
 Coeff-En:   0.100D+01
 Coeff:      0.100D+01
 Gap=     0.162 Goal=   None    Shift=    0.000
 GapD=    0.162 DampG=1.000 DampE=0.500 DampFc=0.5000 IDamp=-1.
 Damping current iteration by 5.00D-01
 RMSDP=7.77D-03 MaxDP=1.31D-01              OVMax= 1.77D-01

 Cycle   2  Pass 0  IDiag  1:
 E= -95.8208992489697     Delta-E=       -0.041741807144 Rises=F Damp=T
 DIIS: error= 9.15D-03 at cycle   2 NSaved=   2.
 NSaved= 2 IEnMin= 2 EnMin= -95.8208992489697     IErMin= 2 ErrMin= 9.15D-03
 ErrMax= 9.15D-03  0.00D+00 EMaxC= 1.00D-01 BMatC= 6.67D-03 BMatP= 1.24D-01
 IDIUse=3 WtCom= 9.08D-01 WtEn= 9.15D-02
 Coeff-Com:  0.122D+00 0.878D+00
 Coeff-En:   0.231D+00 0.769D+00
 Coeff:      0.132D+00 0.868D+00
 Gap=     0.268 Goal=   None    Shift=    0.000
 RMSDP=1.23D-03 MaxDP=1.27D-02 DE=-4.17D-02 OVMax= 1.13D-01

 Cycle   3  Pass 0  IDiag  1:
 E= -95.8857411474526     Delta-E=       -0.064841898483 Rises=F Damp=F
 DIIS: error= 5.48D-03 at cycle   3 NSaved=   3.
 NSaved= 3 IEnMin= 3 EnMin= -95.8857411474526     IErMin= 3 ErrMin= 5.48D-03
 ErrMax= 5.48D-03  0.00D+00 EMaxC= 1.00D-01 BMatC= 1.02D-03 BMatP= 6.67D-03
 IDIUse=3 WtCom= 9.45D-01 WtEn= 5.48D-02
 Coeff-Com:  0.315D-02 0.248D+00 0.749D+00
 Coeff-En:   0.000D+00 0.000D+00 0.100D+01
 Coeff:      0.298D-02 0.234D+00 0.763D+00
 Gap=     0.265 Goal=   None    Shift=    0.000
 RMSDP=3.96D-04 MaxDP=6.61D-03 DE=-6.48D-02 OVMax= 1.18D-02

 Cycle   4  Pass 0  IDiag  1:
 E= -95.8863157738084     Delta-E=       -0.000574626356 Rises=F Damp=F
 DIIS: error= 2.79D-03 at cycle   4 NSaved=   4.
 NSaved= 4 IEnMin= 4 EnMin= -95.8863157738084     IErMin= 4 ErrMin= 2.79D-03
 ErrMax= 2.79D-03  0.00D+00 EMaxC= 1.00D-01 BMatC= 3.41D-04 BMatP= 1.02D-03
 IDIUse=3 WtCom= 9.72D-01 WtEn= 2.79D-02
 Coeff-Com: -0.554D-02 0.630D-01 0.397D+00 0.546D+00
 Coeff-En:   0.000D+00 0.000D+00 0.229D+00 0.771D+00
 Coeff:     -0.539D-02 0.612D-01 0.392D+00 0.552D+00
 Gap=     0.267 Goal=   None    Shift=    0.000
 RMSDP=1.68D-04 MaxDP=3.92D-03 DE=-5.75D-04 OVMax= 5.10D-03

 Cycle   5  Pass 0  IDiag  1:
 E= -95.8866026138611     Delta-E=       -0.000286840053 Rises=F Damp=F
 DIIS: error= 4.39D-04 at cycle   5 NSaved=   5.
 NSaved= 5 IEnMin= 5 EnMin= -95.8866026138611     IErMin= 5 ErrMin= 4.39D-04
 ErrMax= 4.39D-04  0.00D+00 EMaxC= 1.00D-01 BMatC= 1.04D-05 BMatP= 3.41D-04
 IDIUse=3 WtCom= 9.96D-01 WtEn= 4.39D-03
 Coeff-Com: -0.191D-02 0.258D-02 0.910D-01 0.210D+00 0.698D+00
 Coeff-En:   0.000D+00 0.000D+00 0.000D+00 0.000D+00 0.100D+01
 Coeff:     -0.190D-02 0.257D-02 0.906D-01 0.210D+00 0.699D+00
 Gap=     0.267 Goal=   None    Shift=    0.000
 RMSDP=2.75D-05 MaxDP=5.38D-04 DE=-2.87D-04 OVMax= 7.70D-04

 Cycle   6  Pass 0  IDiag  1:
 E= -95.8866112464871     Delta-E=       -0.000008632626 Rises=F Damp=F
 DIIS: error= 2.23D-05 at cycle   6 NSaved=   6.
 NSaved= 6 IEnMin= 6 EnMin= -95.8866112464871     IErMin= 6 ErrMin= 2.23D-05
 ErrMax= 2.23D-05  0.00D+00 EMaxC= 1.00D-01 BMatC= 2.84D-08 BMatP= 1.04D-05
 IDIUse=1 WtCom= 1.00D+00 WtEn= 0.00D+00
 Coeff-Com:  0.225D-03-0.781D-03 0.246D-02 0.719D-02 0.467D-01 0.944D+00
 Coeff:      0.225D-03-0.781D-03 0.246D-02 0.719D-02 0.467D-01 0.944D+00
 Gap=     0.267 Goal=   None    Shift=    0.000
 RMSDP=2.83D-06 MaxDP=3.40D-05 DE=-8.63D-06 OVMax= 7.80D-05

 Initial convergence to 1.0D-05 achieved.  Increase integral accuracy.
 Cycle   7  Pass 1  IDiag  1:
 E= -95.8866143691792     Delta-E=       -0.000003122692 Rises=F Damp=F
 DIIS: error= 4.85D-06 at cycle   1 NSaved=   1.
 NSaved= 1 IEnMin= 1 EnMin= -95.8866143691792     IErMin= 1 ErrMin= 4.85D-06
 ErrMax= 4.85D-06  0.00D+00 EMaxC= 1.00D-01 BMatC= 1.97D-09 BMatP= 1.97D-09
 IDIUse=1 WtCom= 1.00D+00 WtEn= 0.00D+00
 Coeff-Com:  0.100D+01
 Coeff:      0.100D+01
 Gap=     0.267 Goal=   None    Shift=    0.000
 RMSDP=2.83D-06 MaxDP=3.40D-05 DE=-3.12D-06 OVMax= 2.59D-05

 Cycle   8  Pass 1  IDiag  1:
 E= -95.8866143708580     Delta-E=       -0.000000001679 Rises=F Damp=F
 DIIS: error= 3.86D-06 at cycle   2 NSaved=   2.
 NSaved= 2 IEnMin= 2 EnMin= -95.8866143708580     IErMin= 2 ErrMin= 3.86D-06
 ErrMax= 3.86D-06  0.00D+00 EMaxC= 1.00D-01 BMatC= 6.49D-10 BMatP= 1.97D-09
 IDIUse=1 WtCom= 1.00D+00 WtEn= 0.00D+00
 Coeff-Com:  0.317D+00 0.683D+00
 Coeff:      0.317D+00 0.683D+00
 Gap=     0.267 Goal=   None    Shift=    0.000
 RMSDP=3.96D-07 MaxDP=5.45D-06 DE=-1.68D-09 OVMax= 9.38D-06

 Cycle   9  Pass 1  IDiag  1:
 E= -95.8866143712887     Delta-E=       -0.000000000431 Rises=F Damp=F
 DIIS: error= 2.38D-06 at cycle   3 NSaved=   3.
 NSaved= 3 IEnMin= 3 EnMin= -95.8866143712887     IErMin= 3 ErrMin= 2.38D-06
 ErrMax= 2.38D-06  0.00D+00 EMaxC= 1.00D-01 BMatC= 2.21D-10 BMatP= 6.49D-10
 IDIUse=1 WtCom= 1.00D+00 WtEn= 0.00D+00
 Coeff-Com:  0.506D-01 0.364D+00 0.586D+00
 Coeff:      0.506D-01 0.364D+00 0.586D+00
 Gap=     0.267 Goal=   None    Shift=    0.000
 RMSDP=1.32D-07 MaxDP=2.71D-06 DE=-4.31D-10 OVMax= 3.61D-06

 Cycle  10  Pass 1  IDiag  1:
 E= -95.8866143714585     Delta-E=       -0.000000000170 Rises=F Damp=F
 DIIS: error= 3.29D-07 at cycle   4 NSaved=   4.
 NSaved= 4 IEnMin= 4 EnMin= -95.8866143714585     IErMin= 4 ErrMin= 3.29D-07
 ErrMax= 3.29D-07  0.00D+00 EMaxC= 1.00D-01 BMatC= 7.60D-12 BMatP= 2.21D-10
 IDIUse=1 WtCom= 1.00D+00 WtEn= 0.00D+00
 Coeff-Com: -0.633D-02 0.909D-01 0.227D+00 0.688D+00
 Coeff:     -0.633D-02 0.909D-01 0.227D+00 0.688D+00
 Gap=     0.267 Goal=   None    Shift=    0.000
 RMSDP=3.14D-08 MaxDP=5.54D-07 DE=-1.70D-10 OVMax= 7.11D-07

 Cycle  11  Pass 1  IDiag  1:
 E= -95.8866143714646     Delta-E=       -0.000000000006 Rises=F Damp=F
 DIIS: error= 8.56D-08 at cycle   5 NSaved=   5.
 NSaved= 5 IEnMin= 5 EnMin= -95.8866143714646     IErMin= 5 ErrMin= 8.56D-08
 ErrMax= 8.56D-08  0.00D+00 EMaxC= 1.00D-01 BMatC= 3.22D-13 BMatP= 7.60D-12
 IDIUse=1 WtCom= 1.00D+00 WtEn= 0.00D+00
 Coeff-Com: -0.416D-02 0.336D-01 0.882D-01 0.313D+00 0.569D+00
 Coeff:     -0.416D-02 0.336D-01 0.882D-01 0.313D+00 0.569D+00
 Gap=     0.267 Goal=   None    Shift=    0.000
 RMSDP=6.53D-09 MaxDP=1.33D-07 DE=-6.05D-12 OVMax= 1.73D-07

 SCF Done:  E(RB3LYP) =  -95.8866143715     A.U. after   11 cycles
            NFock= 11  Conv=0.65D-08     -V/T= 2.0051
 KE= 9.540238628196D+01 PE=-3.064020697759D+02 EE= 7.346851767440D+01
 Leave Link  502 at Sat Feb 16 13:47:58 2019, MaxMem=   196608000 cpu:         9.1
 (Enter /cm/shared/c3ddb/gaussian/09.d01/g09/l508.exe)
 QCSCF skips out because SCF is already converged.
 Leave Link  508 at Sat Feb 16 13:47:58 2019, MaxMem=   196608000 cpu:         0.0
 (Enter /cm/shared/c3ddb/gaussian/09.d01/g09/l801.exe)
 DoSCS=F DFT=T ScalE2(SS,OS)=  1.000000  1.000000
 Range of M.O.s used for correlation:     1    66
 NBasis=    66 NAE=     9 NBE=     9 NFC=     0 NFV=     0
 NROrb=     66 NOA=     9 NOB=     9 NVA=    57 NVB=    57
 Leave Link  801 at Sat Feb 16 13:47:58 2019, MaxMem=   196608000 cpu:         0.2
 (Enter /cm/shared/c3ddb/gaussian/09.d01/g09/l1101.exe)
 Using compressed storage, NAtomX=     7.
 Will process      8 centers per pass.
 Leave Link 1101 at Sat Feb 16 13:47:58 2019, MaxMem=   196608000 cpu:         1.5
 (Enter /cm/shared/c3ddb/gaussian/09.d01/g09/l1102.exe)
 Symmetrizing basis deriv contribution to polar:
 IMax=3 JMax=2 DiffMx= 0.00D+00
 Leave Link 1102 at Sat Feb 16 13:47:58 2019, MaxMem=   196608000 cpu:         0.7
 (Enter /cm/shared/c3ddb/gaussian/09.d01/g09/l1110.exe)
 Forming Gx(P) for the SCF density, NAtomX=     7.
 Integral derivatives from FoFJK, PRISM(SPDF).
 Do as many integral derivatives as possible in FoFJK.
 G2DrvN: MDV=     196607840.
 G2DrvN: will do     8 centers at a time, making    1 passes.
 Calling FoFCou, ICntrl=  3107 FMM=F I1Cent=   0 AccDes= 0.00D+00.
 FoFJK:  IHMeth= 1 ICntrl=    3107 DoSepK=F KAlg= 0 I1Cent=   0 FoldK=F
 IRaf=         0 NMat=   1 IRICut=       1 DoRegI=T DoRafI=F ISym2E= 0.
 FoFCou: FMM=F IPFlag=           0 FMFlag=      100000 FMFlg1=           0
         NFxFlg=           0 DoJE=F BraDBF=F KetDBF=F FulRan=T
         wScrn=  0.000000 ICntrl=    3107 IOpCl=  0 I1Cent=           0 NGrid=           0
         NMat0=    1 NMatS0=      1 NMatT0=    0 NMatD0=    1 NMtDS0=    0 NMtDT0=    0
 Symmetry not used in FoFCou.
 End of G2Drv F.D. properties file   721 does not exist.
 End of G2Drv F.D. properties file   722 does not exist.
 End of G2Drv F.D. properties file   788 does not exist.
 Leave Link 1110 at Sat Feb 16 13:48:02 2019, MaxMem=   196608000 cpu:        23.7
 (Enter /cm/shared/c3ddb/gaussian/09.d01/g09/l1002.exe)
 Minotr:  Closed shell wavefunction.
          IDoAtm=1111111
          Direct CPHF calculation.
          Differentiating once with respect to nuclear coordinates.
          Requested convergence is 1.0D-08 RMS, and 1.0D-07 maximum.
          Secondary convergence is 1.0D-12 RMS, and 1.0D-12 maximum.
          NewPWx=T KeepS1=F KeepF1=F KeepIn=T MapXYZ=F SortEE=F KeepMc=T.
          MDV=     196607860 using IRadAn=       2.
 Generate precomputed XC quadrature information.
 Keep R1 ints in memory in canonical form, NReq=3335823.
 FoFCou: FMM=F IPFlag=           0 FMFlag=           0 FMFlg1=           0
         NFxFlg=           0 DoJE=F BraDBF=F KetDBF=F FulRan=T
         wScrn=  0.000000 ICntrl=     600 IOpCl=  0 I1Cent=           0 NGrid=           0
         NMat0=    1 NMatS0=   2211 NMatT0=    0 NMatD0=    1 NMtDS0=    0 NMtDT0=    0
 Symmetry not used in FoFCou.
          Solving linear equations simultaneously, MaxMat=       0.
          There are    24 degrees of freedom in the 1st order CPHF.  IDoFFX=6 NUNeed=     0.
     18 vectors produced by pass  0 Test12= 2.14D-15 4.17D-09 XBig12= 6.97D-02 1.24D-01.
 AX will form    18 AO Fock derivatives at one time.
     18 vectors produced by pass  1 Test12= 2.14D-15 4.17D-09 XBig12= 4.07D-03 1.88D-02.
     18 vectors produced by pass  2 Test12= 2.14D-15 4.17D-09 XBig12= 4.96D-05 2.33D-03.
     18 vectors produced by pass  3 Test12= 2.14D-15 4.17D-09 XBig12= 2.28D-07 1.21D-04.
     18 vectors produced by pass  4 Test12= 2.14D-15 4.17D-09 XBig12= 5.29D-10 6.43D-06.
      8 vectors produced by pass  5 Test12= 2.14D-15 4.17D-09 XBig12= 7.26D-13 3.25D-07.
 InvSVY:  IOpt=1 It=  1 EMax= 1.33D-15
 Solved reduced A of dimension    98 with    18 vectors.
 End of Minotr F.D. properties file   721 does not exist.
 End of Minotr F.D. properties file   722 does not exist.
 End of Minotr F.D. properties file   788 does not exist.
 Leave Link 1002 at Sat Feb 16 13:48:04 2019, MaxMem=   196608000 cpu:        15.1
 (Enter /cm/shared/c3ddb/gaussian/09.d01/g09/l601.exe)
 Copying SCF densities to generalized density rwf, IOpCl= 0 IROHF=0.

 **********************************************************************

            Population analysis using the SCF density.

 **********************************************************************

 Orbital symmetries:
       Occupied  (A) (A) (A) (A) (A) (A) (A) (A) (A)
       Virtual   (A) (A) (A) (A) (A) (A) (A) (A) (A) (A) (A) (A)
                 (A) (A) (A) (A) (A) (A) (A) (A) (A) (A) (A) (A)
                 (A) (A) (A) (A) (A) (A) (A) (A) (A) (A) (A) (A)
                 (A) (A) (A) (A) (A) (A) (A) (A) (A) (A) (A) (A)
                 (A) (A) (A) (A) (A) (A) (A) (A) (A)
 The electronic state is 1-A.
 Alpha  occ. eigenvalues --  -14.27810 -10.18635  -0.86103  -0.65553  -0.48896
 Alpha  occ. eigenvalues --   -0.43252  -0.40133  -0.36924  -0.22232
 Alpha virt. eigenvalues --    0.04426   0.07667   0.09616   0.11853   0.14197
 Alpha virt. eigenvalues --    0.21412   0.30557   0.33108   0.37805   0.39913
 Alpha virt. eigenvalues --    0.45487   0.53505   0.58079   0.58312   0.64217
 Alpha virt. eigenvalues --    0.72039   0.72818   0.73881   1.03167   1.04868
 Alpha virt. eigenvalues --    1.09037   1.30538   1.42193   1.45583   1.47761
 Alpha virt. eigenvalues --    1.50315   1.56434   1.60171   1.68241   1.68636
 Alpha virt. eigenvalues --    1.73948   1.86142   1.93897   2.01105   2.13311
 Alpha virt. eigenvalues --    2.15549   2.26285   2.35927   2.39538   2.40549
 Alpha virt. eigenvalues --    2.41461   2.49069   2.52242   2.58261   2.72451
 Alpha virt. eigenvalues --    2.77161   2.84090   2.95227   3.10142   3.38699
 Alpha virt. eigenvalues --    3.72378   3.79260   3.91568   4.74260   4.83695
 Alpha virt. eigenvalues --   23.85174  35.56976
          Condensed to atoms (all electrons):
               1          2          3          4          5          6
     1  N    6.527353   0.329550  -0.031406  -0.046989  -0.031406   0.376486
     2  C    0.329550   4.734208   0.402384   0.405205   0.402384  -0.043125
     3  H   -0.031406   0.402384   0.590743  -0.043468  -0.026224  -0.007856
     4  H   -0.046989   0.405205  -0.043468   0.653826  -0.043468  -0.003991
     5  H   -0.031406   0.402384  -0.026224  -0.043468   0.590743   0.008804
     6  H    0.376486  -0.043125  -0.007856  -0.003991   0.008804   0.514564
     7  H    0.376486  -0.043125   0.008804  -0.003991  -0.007856  -0.040199
               7
     1  N    0.376486
     2  C   -0.043125
     3  H    0.008804
     4  H   -0.003991
     5  H   -0.007856
     6  H   -0.040199
     7  H    0.514564
 Mulliken charges:
               1
     1  N   -0.500074
     2  C   -0.187480
     3  H    0.107023
     4  H    0.082875
     5  H    0.107023
     6  H    0.195316
     7  H    0.195316
 Sum of Mulliken charges =   0.00000
 Mulliken charges with hydrogens summed into heavy atoms:
               1
     1  N   -0.109441
     2  C    0.109441
 APT charges:
               1
     1  N   -0.935704
     2  C   -0.867610
     3  H    0.323163
     4  H    0.292322
     5  H    0.323163
     6  H    0.432332
     7  H    0.432332
 Sum of APT charges =   0.00000
 APT charges with hydrogens summed into heavy atoms:
               1
     1  N   -0.071039
     2  C    0.071039
 Electronic spatial extent (au):  <R**2>=             96.5858
 Charge=              0.0000 electrons
 Dipole moment (field-independent basis, Debye):
    X=             -0.0161    Y=              0.0000    Z=              1.0521  Tot=              1.0523
 Quadrupole moment (field-independent basis, Debye-Ang):
   XX=            -13.3724   YY=            -12.4621   ZZ=            -15.5441
   XY=              0.0000   XZ=              1.6944   YZ=              0.0000
 Traceless Quadrupole moment (field-independent basis, Debye-Ang):
   XX=              0.4204   YY=              1.3308   ZZ=             -1.7512
   XY=              0.0000   XZ=              1.6944   YZ=              0.0000
 Octapole moment (field-independent basis, Debye-Ang**2):
  XXX=              4.2023  YYY=              0.0000  ZZZ=              1.0845  XYY=              2.4771
  XXY=              0.0000  XXZ=              1.5944  XZZ=             -0.4318  YZZ=              0.0000
  YYZ=              0.0974  XYZ=              0.0000
 Hexadecapole moment (field-independent basis, Debye-Ang**3):
 XXXX=            -75.8909 YYYY=            -24.1008 ZZZZ=            -24.5147 XXXY=              0.0000
 XXXZ=              3.1251 YYYX=              0.0000 YYYZ=              0.0000 ZZZX=              1.0336
 ZZZY=              0.0000 XXYY=            -14.4016 XXZZ=            -17.7355 YYZZ=             -8.1856
 XXYZ=              0.0000 YYXZ=              1.7686 ZZXY=              0.0000
 N-N= 4.164455144807D+01 E-N=-3.064020639147D+02  KE= 9.540238628196D+01
  Exact polarizability:   0.000   0.000   0.000   0.000   0.000   0.000
 Approx polarizability:  28.134   0.000  27.852  -0.020   0.000  23.651
 No NMR shielding tensors so no spin-rotation constants.
 Leave Link  601 at Sat Feb 16 13:48:04 2019, MaxMem=   196608000 cpu:         1.3
 (Enter /cm/shared/c3ddb/gaussian/09.d01/g09/l701.exe)
 Compute integral second derivatives.
 ... and contract with generalized density number  0.
 Leave Link  701 at Sat Feb 16 13:48:04 2019, MaxMem=   196608000 cpu:         1.9
 (Enter /cm/shared/c3ddb/gaussian/09.d01/g09/l702.exe)
 L702 exits ... SP integral derivatives will be done elsewhere.
 Leave Link  702 at Sat Feb 16 13:48:04 2019, MaxMem=   196608000 cpu:         0.2
 (Enter /cm/shared/c3ddb/gaussian/09.d01/g09/l703.exe)
 Compute integral second derivatives, UseDBF=F ICtDFT=           0.
 Integral derivatives from FoFJK, PRISM(SPDF).
 Calling FoFJK, ICntrl=    100147 FMM=F ISym2X=0 I1Cent= 0 IOpClX= 0 NMat=1 NMatS=1 NMatT=0.
 FoFJK:  IHMeth= 1 ICntrl=  100147 DoSepK=F KAlg= 0 I1Cent=   0 FoldK=F
 IRaf=         0 NMat=   1 IRICut=       1 DoRegI=T DoRafI=F ISym2E= 0.
 FoFCou: FMM=F IPFlag=           0 FMFlag=      100000 FMFlg1=         800
         NFxFlg=           0 DoJE=F BraDBF=F KetDBF=F FulRan=T
         wScrn=  0.000000 ICntrl=  100147 IOpCl=  0 I1Cent=           0 NGrid=           0
         NMat0=    1 NMatS0=      1 NMatT0=    0 NMatD0=    1 NMtDS0=    0 NMtDT0=    0
 Symmetry not used in FoFCou.
 Leave Link  703 at Sat Feb 16 13:48:08 2019, MaxMem=   196608000 cpu:        27.3
 (Enter /cm/shared/c3ddb/gaussian/09.d01/g09/l716.exe)
 Dipole        =-6.33958525D-03 4.36450039D-07 4.13944951D-01
 Polarizability= 0.00000000D+00 0.00000000D+00 0.00000000D+00
                 0.00000000D+00 0.00000000D+00 0.00000000D+00
 ***** Axes restored to original set *****
 -------------------------------------------------------------------
 Center     Atomic                   Forces (Hartrees/Bohr)
 Number     Number              X              Y              Z
 -------------------------------------------------------------------
      1        7          -0.004010042    0.003924168   -0.006437616
      2        6           0.004604169   -0.001994071    0.003245854
      3        1           0.002287905    0.002944246    0.003974971
      4        1           0.001540737    0.003643233   -0.006031364
      5        1           0.002239459   -0.004907144   -0.000780106
      6        1          -0.003293006    0.004347233    0.006740347
      7        1          -0.003369224   -0.007957664   -0.000712086
 -------------------------------------------------------------------
 Cartesian Forces:  Max     0.007957664 RMS     0.004199898
 Force constants in Cartesian coordinates: 
                1             2             3             4             5 
      1  0.562026D+00
      2 -0.211212D-01  0.558508D+00
      3  0.364692D-01  0.264848D+00  0.281097D+00
      4 -0.200667D+00 -0.940205D-02  0.164953D-01  0.462934D+00
      5 -0.289181D-01 -0.939983D-01 -0.184458D-01 -0.139077D-01  0.554972D+00
      6  0.487196D-01 -0.186446D-01 -0.750590D-01  0.240995D-01  0.322140D-01
      7 -0.222061D-01 -0.226773D-01 -0.216700D-01 -0.905866D-01 -0.466075D-01
      8 -0.359140D-02 -0.236315D-02 -0.208576D-02 -0.505181D-01 -0.107147D+00
      9  0.410074D-02  0.615097D-02  0.100132D-01 -0.804487D-01 -0.919943D-01
     10 -0.177163D-01 -0.181230D-01  0.301440D-01 -0.529932D-01 -0.103801D-01
     11 -0.729880D-02  0.237859D-02  0.254947D-02 -0.888935D-02 -0.108317D+00
     12  0.122715D-01  0.265973D-02 -0.639054D-03  0.146542D-01  0.876229D-01
     13 -0.218702D-01  0.299450D-01  0.101717D-01 -0.888754D-01  0.861990D-01
     14 -0.169014D-02  0.877316D-02  0.115826D-03  0.931612D-01 -0.249506D+00
     15  0.512176D-02 -0.824874D-02 -0.145904D-02  0.757076D-02 -0.156990D-01
     16 -0.148284D+00  0.143238D+00  0.388490D-01 -0.147616D-01  0.321480D-01
     17  0.151394D+00 -0.316363D+00 -0.101304D+00 -0.711593D-02  0.586235D-02
     18  0.200451D-01 -0.647042D-01 -0.287638D-01  0.760455D-02 -0.470689D-02
     19 -0.151283D+00 -0.101860D+00 -0.110459D+00 -0.150506D-01 -0.185336D-01
     20 -0.887746D-01 -0.156936D+00 -0.145678D+00 -0.332810D-02 -0.186614D-02
     21 -0.126728D+00 -0.182061D+00 -0.185190D+00  0.100244D-01  0.110092D-01
                6             7             8             9            10 
      6  0.520960D+00
      7 -0.746166D-01  0.109104D+00
      8 -0.887229D-01  0.598152D-01  0.111808D+00
      9 -0.191859D+00  0.846600D-01  0.982826D-01  0.203613D+00
     10  0.171156D-01  0.264493D-02  0.737707D-02 -0.102977D-01  0.631384D-01
     11  0.876078D-01  0.216061D-02  0.867566D-02 -0.129962D-01  0.162130D-01
     12 -0.200143D+00  0.790393D-03  0.131798D-01 -0.214403D-01 -0.269029D-01
     13  0.677737D-02  0.709857D-02 -0.126571D-01  0.165024D-03  0.261059D-02
     14 -0.190016D-01  0.553502D-02 -0.128807D-01 -0.357100D-03  0.554619D-02
     15 -0.512103D-01  0.110518D-01 -0.215795D-01 -0.149208D-02 -0.110802D-01
     16  0.430710D-02  0.609140D-03 -0.363614D-04 -0.784667D-03  0.115331D-02
     17  0.685294D-02  0.517755D-03  0.301124D-03 -0.254567D-03 -0.111238D-02
     18 -0.535307D-02 -0.714996D-03  0.396376D-03  0.380066D-03  0.202976D-04
     19 -0.264026D-01 -0.666426D-02 -0.389319D-03  0.260541D-02  0.116227D-02
     20 -0.305577D-03  0.125625D-02  0.160615D-02  0.116866D-02  0.479149D-03
     21  0.266439D-02  0.499482D-03  0.529401D-03  0.785375D-03  0.100091D-02
               11            12            13            14            15 
     11  0.111873D+00
     12 -0.102118D+00  0.219016D+00
     13 -0.172008D-02 -0.155721D-02  0.107111D+00
     14 -0.149365D-01 -0.687795D-03 -0.101214D+00  0.266452D+00
     15  0.256154D-01  0.220617D-02 -0.139310D-01  0.190844D-01  0.509604D-01
     16 -0.159802D-03  0.416442D-03 -0.668808D-02 -0.204692D-02  0.159705D-02
     17  0.747141D-03  0.704821D-04 -0.946563D-03  0.168645D-02  0.493102D-03
     18 -0.133107D-02 -0.794473D-04 -0.831011D-03  0.116033D-02  0.728890D-03
     19 -0.305570D-03  0.327608D-03  0.612971D-03  0.708742D-03 -0.330187D-03
     20 -0.421287D-03 -0.726793D-03  0.393839D-03  0.411380D-03  0.334362D-03
     21  0.673043D-03  0.108001D-02 -0.794836D-03 -0.314141D-03  0.265989D-03
               16            17            18            19            20 
     16  0.157014D+00
     17 -0.154863D+00  0.324003D+00
     18 -0.400099D-01  0.896181D-01  0.410754D-01
     19  0.109570D-01  0.121254D-01  0.138859D-01  0.160266D+00
     20 -0.182807D-01 -0.162374D-01 -0.204326D-01  0.108254D+00  0.173443D+00
     21 -0.437502D-02  0.452349D-02 -0.798803D-02  0.120373D+00  0.165640D+00
               21 
     21  0.188382D+00
 FormGI is forming the generalized inverse of G from B-inverse, IUseBI=4.
 Force constants in internal coordinates: 
                1             2             3             4             5 
      1  0.315581D+00
      2  0.195637D-02  0.440055D+00
      3  0.195638D-02 -0.146916D-02  0.440052D+00
      4  0.100769D-01  0.356979D-03 -0.132572D-02  0.317590D+00
      5  0.188180D-01  0.999466D-04  0.999478D-04  0.498493D-02  0.284952D+00
      6  0.100769D-01 -0.132572D-02  0.356981D-03  0.291962D-02  0.498494D-02
      7  0.223800D-01  0.629240D-02 -0.532586D-02 -0.625970D-03 -0.138411D-03
      8  0.223800D-01 -0.532584D-02  0.629239D-02  0.263199D-02 -0.138408D-03
      9 -0.213821D-01  0.651295D-02  0.651297D-02 -0.148761D-02 -0.263010D-03
     10  0.234627D-01 -0.644728D-03  0.566189D-02  0.460468D-03 -0.450915D-02
     11  0.200684D-01 -0.333756D-02 -0.333756D-02 -0.542101D-02 -0.559198D-02
     12  0.234628D-01  0.566189D-02 -0.644738D-03 -0.423549D-02 -0.450915D-02
     13 -0.242691D-01  0.688314D-03 -0.867149D-03  0.627253D-02  0.895189D-02
     14 -0.229097D-01 -0.151662D-02 -0.151662D-02  0.551999D-02 -0.296003D-02
     15 -0.242690D-01 -0.867146D-03  0.688313D-03 -0.165430D-02  0.895189D-02
     16  0.597702D-02  0.641257D-02  0.523399D-02  0.259401D-03 -0.465570D-02
     17  0.646498D-02  0.446998D-02  0.616193D-02  0.505342D-02 -0.333325D-03
     18  0.695295D-02  0.539792D-02  0.421934D-02 -0.422990D-02  0.398906D-02
     19 -0.695295D-02 -0.421934D-02 -0.539793D-02  0.465607D-03 -0.398906D-02
     20 -0.646499D-02 -0.616192D-02 -0.446999D-02  0.525962D-02  0.333318D-03
     21 -0.597702D-02 -0.523398D-02 -0.641257D-02 -0.402370D-02  0.465570D-02
                6             7             8             9            10 
      6  0.317590D+00
      7  0.263199D-02  0.114103D+00
      8 -0.625973D-03 -0.441662D-01  0.114103D+00
      9 -0.148761D-02 -0.469811D-01 -0.469812D-01  0.663485D-01
     10 -0.423548D-02 -0.856269D-02  0.147587D-01 -0.436867D-02  0.117847D+00
     11 -0.542101D-02 -0.185440D-02 -0.185440D-02  0.292340D-02 -0.287225D-01
     12  0.460468D-03  0.147587D-01 -0.856269D-02 -0.436866D-02 -0.197755D-01
     13 -0.165430D-02  0.310254D-02 -0.537748D-02  0.149733D-02 -0.451135D-01
     14  0.551999D-02 -0.227835D-02 -0.227834D-02  0.308530D-02 -0.383427D-01
     15  0.627254D-02 -0.537747D-02  0.310254D-02  0.149733D-02  0.105143D-01
     16  0.402370D-02  0.180977D-02 -0.985328D-03  0.173965D-02 -0.298667D-03
     17 -0.525963D-02 -0.208847D-02  0.214611D-02  0.235678D-02  0.120715D-01
     18 -0.465604D-03  0.104297D-02 -0.175212D-02  0.297390D-02 -0.969971D-02
     19  0.422991D-02  0.175213D-02 -0.104298D-02 -0.297390D-02  0.256837D-05
     20 -0.505342D-02 -0.214611D-02  0.208846D-02 -0.235678D-02  0.123727D-01
     21 -0.259398D-03  0.985334D-03 -0.180977D-02 -0.173965D-02 -0.939848D-02
               11            12            13            14            15 
     11  0.120940D+00
     12 -0.287224D-01  0.117847D+00
     13 -0.400574D-01  0.105143D-01  0.611056D-01
     14  0.104831D-01 -0.383427D-01  0.893939D-02  0.540613D-01
     15 -0.400573D-01 -0.451135D-01  0.894746D-02  0.893940D-02  0.611056D-01
     16 -0.961720D-02  0.939849D-02 -0.873273D-02  0.107834D-01 -0.134913D-03
     17  0.319055D-03 -0.123727D-01  0.827588D-02  0.161345D-04 -0.832363D-02
     18  0.102553D-01 -0.256540D-05  0.871739D-04 -0.107512D-01  0.868502D-02
     19 -0.102553D-01  0.969972D-02 -0.868500D-02  0.107512D-01 -0.871792D-04
     20 -0.319047D-03 -0.120715D-01  0.832361D-02 -0.161240D-04 -0.827590D-02
     21  0.961720D-02  0.298666D-03  0.134907D-03 -0.107834D-01  0.873275D-02
               16            17            18            19            20 
     16  0.140793D-01
     17 -0.438685D-02  0.161212D-01
     18 -0.399630D-02 -0.423605D-02  0.143809D-01
     19  0.106743D-01 -0.794260D-02 -0.770285D-02  0.143809D-01
     20 -0.779180D-02  0.125654D-01 -0.794260D-02 -0.423605D-02  0.161212D-01
     21 -0.740125D-02 -0.779179D-02  0.106743D-01 -0.399630D-02 -0.438685D-02
               21 
     21  0.140792D-01
 Leave Link  716 at Sat Feb 16 13:48:08 2019, MaxMem=   196608000 cpu:         0.3
 (Enter /cm/shared/c3ddb/gaussian/09.d01/g09/l103.exe)

 GradGradGradGradGradGradGradGradGradGradGradGradGradGradGradGradGradGrad
 Berny optimization.
 Red2BG is reusing G-inverse.
 Internal  Forces:  Max     0.010124987 RMS     0.004241303
 Search for a local minimum.
 Step number   1 out of a maximum of   31
 All quantities printed in internal units (Hartrees-Bohrs-Radians)
 RMS Force = .42413D-02 SwitMx=.10000D-02 MixMth= 1
 Mixed Optimization -- RFO/linear search
 Second derivative matrix not updated -- analytic derivatives used.
 ITU=  0
     Eigenvalues ---    0.00212   0.01009   0.06155   0.06273   0.12150
     Eigenvalues ---    0.12945   0.13708   0.17268   0.18764   0.28323
     Eigenvalues ---    0.31564   0.31689   0.34967   0.43991   0.44224
 RFO step:  Lambda=-4.37631698D-03 EMin= 2.12423272D-03
 Linear search not attempted -- first point.
 Iteration  1 RMS(Cart)=  0.07390378 RMS(Int)=  0.01419161
 Iteration  2 RMS(Cart)=  0.00922965 RMS(Int)=  0.01100156
 Iteration  3 RMS(Cart)=  0.00012282 RMS(Int)=  0.01100106
 Iteration  4 RMS(Cart)=  0.00000583 RMS(Int)=  0.01100106
 Iteration  5 RMS(Cart)=  0.00000025 RMS(Int)=  0.01100106
 ITry= 1 IFail=0 DXMaxC= 1.61D-01 DCOld= 1.00D+10 DXMaxT= 3.00D-01 DXLimC= 3.00D+00 Rises=F
 Variable       Old X    -DE/DX   Delta X   Delta X   Delta X     New X
                                 (Linear)    (Quad)   (Total)
    R1        2.77670  -0.01012   0.00000   0.00177   0.00177   2.77847
    R2        1.92192  -0.00675   0.00000  -0.00012  -0.00012   1.92180
    R3        1.92192  -0.00675   0.00000  -0.00012  -0.00012   1.92180
    R4        2.08164  -0.00544   0.00000  -0.01649  -0.01649   2.06515
    R5        2.10700  -0.00721   0.00000  -0.02652  -0.02652   2.08048
    R6        2.08164  -0.00544   0.00000  -0.01649  -0.01649   2.06515
    A1        1.99808  -0.00296   0.00000  -0.10684  -0.12177   1.87631
    A2        1.99808  -0.00296   0.00000  -0.10684  -0.12176   1.87631
    A3        1.95100  -0.00010   0.00000  -0.10652  -0.14379   1.80721
    A4        1.90416   0.00020   0.00000  -0.00053  -0.00053   1.90363
    A5        2.02107  -0.00043   0.00000  -0.00240  -0.00240   2.01867
    A6        1.90416   0.00020   0.00000  -0.00053  -0.00053   1.90363
    A7        1.87784   0.00019   0.00000   0.00418   0.00418   1.88203
    A8        1.87340  -0.00036   0.00000  -0.00516  -0.00516   1.86823
    A9        1.87784   0.00019   0.00000   0.00418   0.00418   1.88203
    D1       -0.97802  -0.00313   0.00000  -0.18907  -0.17822  -1.15624
    D2        1.14274  -0.00303   0.00000  -0.18568  -0.17482   0.96792
    D3       -3.01968  -0.00292   0.00000  -0.18228  -0.17143   3.09208
    D4        3.01968   0.00292   0.00000   0.18228   0.17143  -3.09208
    D5       -1.14274   0.00303   0.00000   0.18568   0.17482  -0.96792
    D6        0.97802   0.00313   0.00000   0.18907   0.17822   1.15624
         Item               Value     Threshold  Converged?
 Maximum Force            0.010125     0.000450     NO 
 RMS     Force            0.004241     0.000300     NO 
 Maximum Displacement     0.161282     0.001800     NO 
 RMS     Displacement     0.077793     0.001200     NO 
 Predicted change in Energy=-2.689579D-03
 Lowest energy point so far.  Saving SCF results.
 GradGradGradGradGradGradGradGradGradGradGradGradGradGradGradGradGradGrad

 Leave Link  103 at Sat Feb 16 13:48:08 2019, MaxMem=   196608000 cpu:         0.2
 (Enter /cm/shared/c3ddb/gaussian/09.d01/g09/l202.exe)
                          Input orientation:                          
 ---------------------------------------------------------------------
 Center     Atomic      Atomic             Coordinates (Angstroms)
 Number     Number       Type             X           Y           Z
 ---------------------------------------------------------------------
      1          7           0        0.825019    0.223117   -0.376808
      2          6           0       -0.564314   -0.019857    0.038536
      3          1           0       -1.083963   -0.563953   -0.754057
      4          1           0       -0.690093   -0.585880    0.974416
      5          1           0       -1.074690    0.939266    0.156341
      6          1           0        1.289805   -0.679683   -0.433065
      7          1           0        1.298236    0.686990    0.394636
 ---------------------------------------------------------------------
                    Distance matrix (angstroms):
                    1          2          3          4          5
     1  N    0.000000
     2  C    1.470304   0.000000
     3  H    2.099050   1.092831   0.000000
     4  H    2.185372   1.100942   1.772916   0.000000
     5  H    2.099050   1.092831   1.757435   1.772916   0.000000
     6  H    1.016975   2.023743   2.398167   2.431007   2.925616
     7  H    1.016975   2.023743   2.925616   2.431008   2.398167
                    6          7
     6  H    0.000000
     7  H    1.597797   0.000000
 Stoichiometry    CH5N
 Framework group  C1[X(CH5N)]
 Deg. of freedom    15
 Full point group                 C1      NOp   1
 RotChk:  IX=0 Diff= 3.53D-02
 Largest Abelian subgroup         C1      NOp   1
 Largest concise Abelian subgroup C1      NOp   1
                         Standard orientation:                         
 ---------------------------------------------------------------------
 Center     Atomic      Atomic             Coordinates (Angstroms)
 Number     Number       Type             X           Y           Z
 ---------------------------------------------------------------------
      1          7           0        0.757258    0.000000   -0.135912
      2          6           0       -0.704973    0.000000    0.017949
      3          1           0       -1.116864   -0.878717   -0.484526
      4          1           0       -1.075276    0.000000    1.054746
      5          1           0       -1.116864    0.878718   -0.484525
      6          1           0        1.119017   -0.798899    0.378997
      7          1           0        1.119017    0.798899    0.378997
 ---------------------------------------------------------------------
 Rotational constants (GHZ):    102.4156561     22.6783444     21.9389064
 Leave Link  202 at Sat Feb 16 13:48:08 2019, MaxMem=   196608000 cpu:         0.1
 (Enter /cm/shared/c3ddb/gaussian/09.d01/g09/l301.exe)
 Standard basis: 6-311G(2d,d,p) (5D, 7F)
 Ernie: Thresh=  0.10000D-02 Tol=  0.10000D-05 Strict=F.
 There are    68 symmetry adapted cartesian basis functions of A   symmetry.
 There are    66 symmetry adapted basis functions of A   symmetry.
    66 basis functions,   104 primitive gaussians,    68 cartesian basis functions
     9 alpha electrons        9 beta electrons
       nuclear repulsion energy        41.9256655584 Hartrees.
 IExCor=  402 DFT=T Ex+Corr=B3LYP ExCW=0 ScaHFX=  0.200000
 ScaDFX=  0.800000  0.720000  1.000000  0.810000 ScalE2=  1.000000  1.000000
 IRadAn=      0 IRanWt=     -1 IRanGd=            0 ICorTp=0 IEmpDi=  4
 NAtoms=    7 NActive=    7 NUniq=    7 SFac= 1.00D+00 NAtFMM=   60 NAOKFM=F Big=F
 Integral buffers will be    131072 words long.
 Raffenetti 2 integral format.
 Two-electron integral symmetry is turned on.
 Leave Link  301 at Sat Feb 16 13:48:08 2019, MaxMem=   196608000 cpu:         2.2
 (Enter /cm/shared/c3ddb/gaussian/09.d01/g09/l302.exe)
 NPDir=0 NMtPBC=     1 NCelOv=     1 NCel=       1 NClECP=     1 NCelD=      1
         NCelK=      1 NCelE2=     1 NClLst=     1 CellRange=     0.0.
 One-electron integrals computed using PRISM.
 NBasis=    66 RedAO= T EigKep=  5.35D-03  NBF=    66
 NBsUse=    66 1.00D-06 EigRej= -1.00D+00 NBFU=    66
 Precomputing XC quadrature grid using
 IXCGrd= 4 IRadAn=           0 IRanWt=          -1 IRanGd=           0 AccXCQ= 0.00D+00.
 Generated NRdTot=       0 NPtTot=           0 NUsed=           0 NTot=          32
 NSgBfM=    68    68    68    68    68 MxSgAt=     7 MxSgA2=     7.
 Leave Link  302 at Sat Feb 16 13:48:09 2019, MaxMem=   196608000 cpu:         1.4
 (Enter /cm/shared/c3ddb/gaussian/09.d01/g09/l303.exe)
 DipDrv:  MaxL=1.
 Leave Link  303 at Sat Feb 16 13:48:09 2019, MaxMem=   196608000 cpu:         0.3
 (Enter /cm/shared/c3ddb/gaussian/09.d01/g09/l401.exe)
 Initial guess from the checkpoint file:  "check.chk"
 B after Tr=     0.000000    0.000000    0.000000
         Rot=    1.000000    0.000000    0.000061    0.000000 Ang=  -0.01 deg.
 Guess basis will be translated and rotated to current coordinates.
 JPrj=2 DoOrth=T DoCkMO=T.
 Generating alternative initial guess.
 ExpMin= 1.03D-01 ExpMax= 6.29D+03 ExpMxC= 9.49D+02 IAcc=1 IRadAn=         1 AccDes= 0.00D+00
 Harris functional with IExCor=  402 and IRadAn=       1 diagonalized for initial guess.
 HarFok:  IExCor=  402 AccDes= 0.00D+00 IRadAn=         1 IDoV= 1 UseB2=F ITyADJ=14
 ICtDFT=  3500011 ScaDFX=  1.000000  1.000000  1.000000  1.000000
 FoFCou: FMM=F IPFlag=           0 FMFlag=      100000 FMFlg1=           0
         NFxFlg=           0 DoJE=T BraDBF=F KetDBF=T FulRan=T
         wScrn=  0.000000 ICntrl=     500 IOpCl=  0 I1Cent=   200000004 NGrid=           0
         NMat0=    1 NMatS0=      1 NMatT0=    0 NMatD0=    1 NMtDS0=    0 NMtDT0=    0
 Petite list used in FoFCou.
 Harris En= -95.9213912994392    
 Leave Link  401 at Sat Feb 16 13:48:09 2019, MaxMem=   196608000 cpu:         2.1
 (Enter /cm/shared/c3ddb/gaussian/09.d01/g09/l502.exe)
 Closed shell SCF:
 Using DIIS extrapolation, IDIIS=  1040.
 Integral symmetry usage will be decided dynamically.
 Keep R1 ints in memory in canonical form, NReq=3356022.
 IVT=       20876 IEndB=       20876 NGot=   196608000 MDV=   194141759
 LenX=   194141759 LenY=   194136694
 Requested convergence on RMS density matrix=1.00D-08 within  64 cycles.
 Requested convergence on MAX density matrix=1.00D-06.
 Requested convergence on             energy=1.00D-06.
 No special actions if energy rises.
 FoFCou: FMM=F IPFlag=           0 FMFlag=           0 FMFlg1=           0
         NFxFlg=           0 DoJE=F BraDBF=F KetDBF=F FulRan=T
         wScrn=  0.000000 ICntrl=     600 IOpCl=  0 I1Cent=           0 NGrid=           0
         NMat0=    1 NMatS0=   2211 NMatT0=    0 NMatD0=    1 NMtDS0=    0 NMtDT0=    0
 Symmetry not used in FoFCou.
 Integral accuracy reduced to 1.0D-05 until final iterations.

 Cycle   1  Pass 0  IDiag  1:
 E= -95.8813170372512    
 DIIS: error= 1.35D-02 at cycle   1 NSaved=   1.
 NSaved= 1 IEnMin= 1 EnMin= -95.8813170372512     IErMin= 1 ErrMin= 1.35D-02
 ErrMax= 1.35D-02  0.00D+00 EMaxC= 1.00D-01 BMatC= 5.71D-03 BMatP= 5.71D-03
 IDIUse=3 WtCom= 8.65D-01 WtEn= 1.35D-01
 Coeff-Com:  0.100D+01
 Coeff-En:   0.100D+01
 Coeff:      0.100D+01
 Recover alternate guess density for next cycle.
 RMSDP=3.67D-03 MaxDP=7.39D-02              OVMax= 0.00D+00

 Cycle   2  Pass 0  IDiag  1:
 E= -95.7808999469648     Delta-E=        0.100417090286 Rises=F Damp=F
 Switch densities from cycles 1 and 2 for lowest energy.
 DIIS: error= 5.01D-02 at cycle   2 NSaved=   2.
 NSaved= 2 IEnMin= 1 EnMin= -95.8813170372512     IErMin= 1 ErrMin= 1.35D-02
 ErrMax= 5.01D-02  0.00D+00 EMaxC= 1.00D+00 BMatC= 1.22D-01 BMatP= 5.71D-03
 IDIUse=1 WtCom= 1.00D+00 WtEn= 0.00D+00
 Coeff-Com:  0.968D+00 0.319D-01
 Coeff:      0.968D+00 0.319D-01
 Gap=     0.278 Goal=   None    Shift=    0.000
 RMSDP=1.51D-03 MaxDP=2.60D-02 DE= 1.00D-01 OVMax= 8.47D-02

 Cycle   3  Pass 0  IDiag  1:
 E= -95.8875216854966     Delta-E=       -0.106621738532 Rises=F Damp=F
 DIIS: error= 2.92D-03 at cycle   3 NSaved=   3.
 NSaved= 3 IEnMin= 3 EnMin= -95.8875216854966     IErMin= 3 ErrMin= 2.92D-03
 ErrMax= 2.92D-03  0.00D+00 EMaxC= 1.00D+00 BMatC= 5.56D-04 BMatP= 5.71D-03
 IDIUse=1 WtCom= 1.00D+00 WtEn= 0.00D+00
 Coeff-Com:  0.572D-03 0.529D-01 0.946D+00
 Coeff:      0.572D-03 0.529D-01 0.946D+00
 Gap=     0.284 Goal=   None    Shift=    0.000
 RMSDP=3.15D-04 MaxDP=7.07D-03 DE=-1.07D-01 OVMax= 7.85D-03

 Cycle   4  Pass 0  IDiag  1:
 E= -95.8878421763495     Delta-E=       -0.000320490853 Rises=F Damp=F
 DIIS: error= 1.98D-03 at cycle   4 NSaved=   4.
 NSaved= 4 IEnMin= 4 EnMin= -95.8878421763495     IErMin= 4 ErrMin= 1.98D-03
 ErrMax= 1.98D-03  0.00D+00 EMaxC= 1.00D+00 BMatC= 1.79D-04 BMatP= 5.56D-04
 IDIUse=1 WtCom= 1.00D+00 WtEn= 0.00D+00
 Coeff-Com: -0.219D-01 0.221D-01 0.485D+00 0.515D+00
 Coeff:     -0.219D-01 0.221D-01 0.485D+00 0.515D+00
 Gap=     0.281 Goal=   None    Shift=    0.000
 RMSDP=1.20D-04 MaxDP=2.44D-03 DE=-3.20D-04 OVMax= 3.64D-03

 Cycle   5  Pass 0  IDiag  1:
 E= -95.8879848390644     Delta-E=       -0.000142662715 Rises=F Damp=F
 DIIS: error= 2.88D-04 at cycle   5 NSaved=   5.
 NSaved= 5 IEnMin= 5 EnMin= -95.8879848390644     IErMin= 5 ErrMin= 2.88D-04
 ErrMax= 2.88D-04  0.00D+00 EMaxC= 1.00D+00 BMatC= 6.36D-06 BMatP= 1.79D-04
 IDIUse=1 WtCom= 1.00D+00 WtEn= 0.00D+00
 Coeff-Com: -0.659D-02 0.304D-02 0.111D+00 0.204D+00 0.689D+00
 Coeff:     -0.659D-02 0.304D-02 0.111D+00 0.204D+00 0.689D+00
 Gap=     0.282 Goal=   None    Shift=    0.000
 RMSDP=2.78D-05 MaxDP=4.93D-04 DE=-1.43D-04 OVMax= 6.82D-04

 Cycle   6  Pass 0  IDiag  1:
 E= -95.8879906451464     Delta-E=       -0.000005806082 Rises=F Damp=F
 DIIS: error= 4.59D-05 at cycle   6 NSaved=   6.
 NSaved= 6 IEnMin= 6 EnMin= -95.8879906451464     IErMin= 6 ErrMin= 4.59D-05
 ErrMax= 4.59D-05  0.00D+00 EMaxC= 1.00D+00 BMatC= 9.93D-08 BMatP= 6.36D-06
 IDIUse=1 WtCom= 1.00D+00 WtEn= 0.00D+00
 Coeff-Com: -0.526D-03-0.457D-03-0.140D-02 0.211D-01 0.155D+00 0.826D+00
 Coeff:     -0.526D-03-0.457D-03-0.140D-02 0.211D-01 0.155D+00 0.826D+00
 Gap=     0.282 Goal=   None    Shift=    0.000
 RMSDP=4.65D-06 MaxDP=9.51D-05 DE=-5.81D-06 OVMax= 1.08D-04

 Initial convergence to 1.0D-05 achieved.  Increase integral accuracy.
 Cycle   7  Pass 1  IDiag  1:
 E= -95.8880018970091     Delta-E=       -0.000011251863 Rises=F Damp=F
 DIIS: error= 4.33D-06 at cycle   1 NSaved=   1.
 NSaved= 1 IEnMin= 1 EnMin= -95.8880018970091     IErMin= 1 ErrMin= 4.33D-06
 ErrMax= 4.33D-06  0.00D+00 EMaxC= 1.00D+00 BMatC= 1.69D-09 BMatP= 1.69D-09
 IDIUse=1 WtCom= 1.00D+00 WtEn= 0.00D+00
 Coeff-Com:  0.100D+01
 Coeff:      0.100D+01
 Gap=     0.282 Goal=   None    Shift=    0.000
 RMSDP=4.65D-06 MaxDP=9.51D-05 DE=-1.13D-05 OVMax= 2.85D-05

 Cycle   8  Pass 1  IDiag  1:
 E= -95.8880018987520     Delta-E=       -0.000000001743 Rises=F Damp=F
 DIIS: error= 3.11D-06 at cycle   2 NSaved=   2.
 NSaved= 2 IEnMin= 2 EnMin= -95.8880018987520     IErMin= 2 ErrMin= 3.11D-06
 ErrMax= 3.11D-06  0.00D+00 EMaxC= 1.00D+00 BMatC= 4.89D-10 BMatP= 1.69D-09
 IDIUse=1 WtCom= 1.00D+00 WtEn= 0.00D+00
 Coeff-Com:  0.295D+00 0.705D+00
 Coeff:      0.295D+00 0.705D+00
 Gap=     0.282 Goal=   None    Shift=    0.000
 RMSDP=3.56D-07 MaxDP=6.14D-06 DE=-1.74D-09 OVMax= 9.99D-06

 Cycle   9  Pass 1  IDiag  1:
 E= -95.8880018989793     Delta-E=       -0.000000000227 Rises=F Damp=F
 DIIS: error= 2.07D-06 at cycle   3 NSaved=   3.
 NSaved= 3 IEnMin= 3 EnMin= -95.8880018989793     IErMin= 3 ErrMin= 2.07D-06
 ErrMax= 2.07D-06  0.00D+00 EMaxC= 1.00D+00 BMatC= 2.29D-10 BMatP= 4.89D-10
 IDIUse=1 WtCom= 1.00D+00 WtEn= 0.00D+00
 Coeff-Com: -0.157D-01 0.403D+00 0.613D+00
 Coeff:     -0.157D-01 0.403D+00 0.613D+00
 Gap=     0.282 Goal=   None    Shift=    0.000
 RMSDP=1.46D-07 MaxDP=3.05D-06 DE=-2.27D-10 OVMax= 3.77D-06

 Cycle  10  Pass 1  IDiag  1:
 E= -95.8880018991663     Delta-E=       -0.000000000187 Rises=F Damp=F
 DIIS: error= 2.67D-07 at cycle   4 NSaved=   4.
 NSaved= 4 IEnMin= 4 EnMin= -95.8880018991663     IErMin= 4 ErrMin= 2.67D-07
 ErrMax= 2.67D-07  0.00D+00 EMaxC= 1.00D+00 BMatC= 2.41D-12 BMatP= 2.29D-10
 IDIUse=1 WtCom= 1.00D+00 WtEn= 0.00D+00
 Coeff-Com: -0.107D-01 0.112D+00 0.207D+00 0.692D+00
 Coeff:     -0.107D-01 0.112D+00 0.207D+00 0.692D+00
 Gap=     0.282 Goal=   None    Shift=    0.000
 RMSDP=2.29D-08 MaxDP=3.82D-07 DE=-1.87D-10 OVMax= 6.48D-07

 Cycle  11  Pass 1  IDiag  1:
 E= -95.8880018991684     Delta-E=       -0.000000000002 Rises=F Damp=F
 DIIS: error= 9.47D-08 at cycle   5 NSaved=   5.
 NSaved= 5 IEnMin= 5 EnMin= -95.8880018991684     IErMin= 5 ErrMin= 9.47D-08
 ErrMax= 9.47D-08  0.00D+00 EMaxC= 1.00D+00 BMatC= 4.96D-13 BMatP= 2.41D-12
 IDIUse=1 WtCom= 1.00D+00 WtEn= 0.00D+00
 Coeff-Com: -0.480D-02 0.214D-01 0.510D-01 0.345D+00 0.587D+00
 Coeff:     -0.480D-02 0.214D-01 0.510D-01 0.345D+00 0.587D+00
 Gap=     0.282 Goal=   None    Shift=    0.000
 RMSDP=7.71D-09 MaxDP=1.78D-07 DE=-2.13D-12 OVMax= 2.04D-07

 SCF Done:  E(RB3LYP) =  -95.8880018992     A.U. after   11 cycles
            NFock= 11  Conv=0.77D-08     -V/T= 2.0040
 KE= 9.550136267490D+01 PE=-3.069834282987D+02 EE= 7.366839816624D+01
 Leave Link  502 at Sat Feb 16 13:48:10 2019, MaxMem=   196608000 cpu:         9.0
 (Enter /cm/shared/c3ddb/gaussian/09.d01/g09/l508.exe)
 QCSCF skips out because SCF is already converged.
 Leave Link  508 at Sat Feb 16 13:48:10 2019, MaxMem=   196608000 cpu:         0.0
 (Enter /cm/shared/c3ddb/gaussian/09.d01/g09/l701.exe)
 Compute integral first derivatives.
 ... and contract with generalized density number  0.
 Leave Link  701 at Sat Feb 16 13:48:11 2019, MaxMem=   196608000 cpu:         3.3
 (Enter /cm/shared/c3ddb/gaussian/09.d01/g09/l702.exe)
 L702 exits ... SP integral derivatives will be done elsewhere.
 Leave Link  702 at Sat Feb 16 13:48:11 2019, MaxMem=   196608000 cpu:         0.2
 (Enter /cm/shared/c3ddb/gaussian/09.d01/g09/l703.exe)
 Compute integral first derivatives, UseDBF=F ICtDFT=           0.
 Integral derivatives from FoFJK, PRISM(SPDF).
 Calling FoFJK, ICntrl=      2127 FMM=F ISym2X=0 I1Cent= 0 IOpClX= 0 NMat=1 NMatS=1 NMatT=0.
 FoFJK:  IHMeth= 1 ICntrl=    2127 DoSepK=F KAlg= 0 I1Cent=   0 FoldK=F
 IRaf=         0 NMat=   1 IRICut=       1 DoRegI=T DoRafI=F ISym2E= 0.
 FoFCou: FMM=F IPFlag=           0 FMFlag=      100000 FMFlg1=         800
         NFxFlg=           0 DoJE=F BraDBF=F KetDBF=F FulRan=T
         wScrn=  0.000000 ICntrl=    2127 IOpCl=  0 I1Cent=           0 NGrid=           0
         NMat0=    1 NMatS0=      1 NMatT0=    0 NMatD0=    1 NMtDS0=    0 NMtDT0=    0
 Symmetry not used in FoFCou.
 Leave Link  703 at Sat Feb 16 13:48:12 2019, MaxMem=   196608000 cpu:         4.4
 (Enter /cm/shared/c3ddb/gaussian/09.d01/g09/l716.exe)
 Dipole        =-1.17950411D-01 3.18403992D-08 5.82733308D-01
 ***** Axes restored to original set *****
 -------------------------------------------------------------------
 Center     Atomic                   Forces (Hartrees/Bohr)
 Number     Number              X              Y              Z
 -------------------------------------------------------------------
      1        7           0.000448423   -0.004355837    0.007187646
      2        6          -0.002638376    0.001347304   -0.002197743
      3        1          -0.000488360   -0.000073182    0.000054230
      4        1           0.000413836    0.000001347   -0.000006443
      5        1          -0.000487972   -0.000009745    0.000092645
      6        1           0.001365781   -0.000148186   -0.003590651
      7        1           0.001386668    0.003238299   -0.001539684
 -------------------------------------------------------------------
 Cartesian Forces:  Max     0.007187646 RMS     0.002336746
 Leave Link  716 at Sat Feb 16 13:48:12 2019, MaxMem=   196608000 cpu:         0.2
 (Enter /cm/shared/c3ddb/gaussian/09.d01/g09/l103.exe)

 GradGradGradGradGradGradGradGradGradGradGradGradGradGradGradGradGradGrad
 Berny optimization.
 Using GEDIIS/GDIIS optimizer.
 FormGI is forming the generalized inverse of G from B-inverse, IUseBI=4.
 Internal  Forces:  Max     0.004034058 RMS     0.001724714
 Search for a local minimum.
 Step number   2 out of a maximum of   31
 All quantities printed in internal units (Hartrees-Bohrs-Radians)
 RMS Force = .17247D-02 SwitMx=.10000D-02 MixMth= 1
 Mixed Optimization -- RFO/linear search
 Update second derivatives using D2CorX and points    1    2
 DE= -1.39D-03 DEPred=-2.69D-03 R= 5.16D-01
 TightC=F SS=  1.41D+00  RLast= 4.85D-01 DXNew= 5.0454D-01 1.4545D+00
 Trust test= 5.16D-01 RLast= 4.85D-01 DXMaxT set to 5.05D-01
 ITU=  1  0
 Use linear search instead of GDIIS.
     Eigenvalues ---    0.00212   0.02471   0.06155   0.06270   0.11866
     Eigenvalues ---    0.12954   0.13708   0.17135   0.18764   0.27705
     Eigenvalues ---    0.31159   0.31564   0.33866   0.43079   0.44224
 RFO step:  Lambda=-1.04587830D-04 EMin= 2.12423272D-03
 Quartic linear search produced a step of -0.28096.
 Iteration  1 RMS(Cart)=  0.02587993 RMS(Int)=  0.00198571
 Iteration  2 RMS(Cart)=  0.00101148 RMS(Int)=  0.00165937
 Iteration  3 RMS(Cart)=  0.00000098 RMS(Int)=  0.00165937
 ITry= 1 IFail=0 DXMaxC= 5.65D-02 DCOld= 1.00D+10 DXMaxT= 5.05D-01 DXLimC= 3.00D+00 Rises=F
 Variable       Old X    -DE/DX   Delta X   Delta X   Delta X     New X
                                 (Linear)    (Quad)   (Total)
    R1        2.77847   0.00223  -0.00050  -0.00822  -0.00871   2.76976
    R2        1.92180   0.00095   0.00003  -0.00392  -0.00388   1.91792
    R3        1.92180   0.00095   0.00003  -0.00392  -0.00388   1.91792
    R4        2.06515   0.00023   0.00463  -0.00502  -0.00039   2.06477
    R5        2.08048  -0.00005   0.00745  -0.00818  -0.00073   2.07975
    R6        2.06515   0.00023   0.00463  -0.00502  -0.00039   2.06477
    A1        1.87631   0.00403   0.03421   0.01476   0.05167   1.92798
    A2        1.87631   0.00403   0.03421   0.01476   0.05167   1.92798
    A3        1.80721   0.00004   0.04040  -0.00434   0.04154   1.84875
    A4        1.90363   0.00069   0.00015   0.00363   0.00377   1.90740
    A5        2.01867  -0.00089   0.00067  -0.00368  -0.00300   2.01567
    A6        1.90363   0.00069   0.00015   0.00363   0.00377   1.90740
    A7        1.88203  -0.00003  -0.00118   0.00006  -0.00112   1.88091
    A8        1.86823  -0.00043   0.00145  -0.00391  -0.00247   1.86576
    A9        1.88203  -0.00003  -0.00118   0.00006  -0.00112   1.88091
    D1       -1.15624   0.00200   0.05007   0.00397   0.05256  -1.10368
    D2        0.96792   0.00187   0.04912   0.00428   0.05191   1.01983
    D3        3.09208   0.00175   0.04816   0.00459   0.05127  -3.13984
    D4       -3.09208  -0.00175  -0.04816  -0.00459  -0.05127   3.13984
    D5       -0.96792  -0.00187  -0.04912  -0.00428  -0.05191  -1.01983
    D6        1.15624  -0.00200  -0.05007  -0.00397  -0.05256   1.10368
         Item               Value     Threshold  Converged?
 Maximum Force            0.004034     0.000450     NO 
 RMS     Force            0.001725     0.000300     NO 
 Maximum Displacement     0.056454     0.001800     NO 
 RMS     Displacement     0.025669     0.001200     NO 
 Predicted change in Energy=-6.335012D-04
 Lowest energy point so far.  Saving SCF results.
 GradGradGradGradGradGradGradGradGradGradGradGradGradGradGradGradGradGrad

 Leave Link  103 at Sat Feb 16 13:48:15 2019, MaxMem=   196608000 cpu:        19.9
 (Enter /cm/shared/c3ddb/gaussian/09.d01/g09/l202.exe)
                          Input orientation:                          
 ---------------------------------------------------------------------
 Center     Atomic      Atomic             Coordinates (Angstroms)
 Number     Number       Type             X           Y           Z
 ---------------------------------------------------------------------
      1          7           0        0.822712    0.205039   -0.346934
      2          6           0       -0.571443   -0.022953    0.043720
      3          1           0       -1.086401   -0.562319   -0.754864
      4          1           0       -0.715417   -0.587528    0.977394
      5          1           0       -1.077138    0.939246    0.154532
      6          1           0        1.309569   -0.678706   -0.456606
      7          1           0        1.318119    0.707221    0.382756
 ---------------------------------------------------------------------
                    Distance matrix (angstroms):
                    1          2          3          4          5
     1  N    0.000000
     2  C    1.465694   0.000000
     3  H    2.097607   1.092627   0.000000
     4  H    2.178955   1.100555   1.771717   0.000000
     5  H    2.097607   1.092627   1.755501   1.771717   0.000000
     6  H    1.014920   2.053909   2.417266   2.482989   2.947478
     7  H    1.014920   2.053909   2.947478   2.482989   2.417266
                    6          7
     6  H    0.000000
     7  H    1.620307   0.000000
 Stoichiometry    CH5N
 Framework group  C1[X(CH5N)]
 Deg. of freedom    15
 Full point group                 C1      NOp   1
 RotChk:  IX=3 Diff= 1.64D-02
 Largest Abelian subgroup         C1      NOp   1
 Largest concise Abelian subgroup C1      NOp   1
                         Standard orientation:                         
 ---------------------------------------------------------------------
 Center     Atomic      Atomic             Coordinates (Angstroms)
 Number     Number       Type             X           Y           Z
 ---------------------------------------------------------------------
      1          7           0        0.751414    0.000000   -0.123489
      2          6           0       -0.707428    0.000000    0.018067
      3          1           0       -1.118908   -0.877751   -0.485987
      4          1           0       -1.082890    0.000000    1.052596
      5          1           0       -1.118908    0.877750   -0.485988
      6          1           0        1.152688   -0.810154    0.337698
      7          1           0        1.152688    0.810154    0.337698
 ---------------------------------------------------------------------
 Rotational constants (GHZ):    103.7475680     22.6785602     21.8164527
 Leave Link  202 at Sat Feb 16 13:48:15 2019, MaxMem=   196608000 cpu:         0.1
 (Enter /cm/shared/c3ddb/gaussian/09.d01/g09/l301.exe)
 Standard basis: 6-311G(2d,d,p) (5D, 7F)
 Ernie: Thresh=  0.10000D-02 Tol=  0.10000D-05 Strict=F.
 There are    68 symmetry adapted cartesian basis functions of A   symmetry.
 There are    66 symmetry adapted basis functions of A   symmetry.
    66 basis functions,   104 primitive gaussians,    68 cartesian basis functions
     9 alpha electrons        9 beta electrons
       nuclear repulsion energy        41.9322493863 Hartrees.
 IExCor=  402 DFT=T Ex+Corr=B3LYP ExCW=0 ScaHFX=  0.200000
 ScaDFX=  0.800000  0.720000  1.000000  0.810000 ScalE2=  1.000000  1.000000
 IRadAn=      0 IRanWt=     -1 IRanGd=            0 ICorTp=0 IEmpDi=  4
 NAtoms=    7 NActive=    7 NUniq=    7 SFac= 1.00D+00 NAtFMM=   60 NAOKFM=F Big=F
 Integral buffers will be    131072 words long.
 Raffenetti 2 integral format.
 Two-electron integral symmetry is turned on.
 Leave Link  301 at Sat Feb 16 13:48:15 2019, MaxMem=   196608000 cpu:         0.4
 (Enter /cm/shared/c3ddb/gaussian/09.d01/g09/l302.exe)
 NPDir=0 NMtPBC=     1 NCelOv=     1 NCel=       1 NClECP=     1 NCelD=      1
         NCelK=      1 NCelE2=     1 NClLst=     1 CellRange=     0.0.
 One-electron integrals computed using PRISM.
 NBasis=    66 RedAO= T EigKep=  5.64D-03  NBF=    66
 NBsUse=    66 1.00D-06 EigRej= -1.00D+00 NBFU=    66
 Precomputing XC quadrature grid using
 IXCGrd= 4 IRadAn=           0 IRanWt=          -1 IRanGd=           0 AccXCQ= 0.00D+00.
 Generated NRdTot=       0 NPtTot=           0 NUsed=           0 NTot=          32
 NSgBfM=    68    68    68    68    68 MxSgAt=     7 MxSgA2=     7.
 Leave Link  302 at Sat Feb 16 13:48:15 2019, MaxMem=   196608000 cpu:         1.5
 (Enter /cm/shared/c3ddb/gaussian/09.d01/g09/l303.exe)
 DipDrv:  MaxL=1.
 Leave Link  303 at Sat Feb 16 13:48:15 2019, MaxMem=   196608000 cpu:         0.3
 (Enter /cm/shared/c3ddb/gaussian/09.d01/g09/l401.exe)
 Initial guess from the checkpoint file:  "check.chk"
 B after Tr=     0.000000    0.000000    0.000000
         Rot=    0.999999    0.000000   -0.001524    0.000000 Ang=   0.17 deg.
 Guess basis will be translated and rotated to current coordinates.
 JPrj=2 DoOrth=T DoCkMO=T.
 Generating alternative initial guess.
 ExpMin= 1.03D-01 ExpMax= 6.29D+03 ExpMxC= 9.49D+02 IAcc=1 IRadAn=         1 AccDes= 0.00D+00
 Harris functional with IExCor=  402 and IRadAn=       1 diagonalized for initial guess.
 HarFok:  IExCor=  402 AccDes= 0.00D+00 IRadAn=         1 IDoV= 1 UseB2=F ITyADJ=14
 ICtDFT=  3500011 ScaDFX=  1.000000  1.000000  1.000000  1.000000
 FoFCou: FMM=F IPFlag=           0 FMFlag=      100000 FMFlg1=           0
         NFxFlg=           0 DoJE=T BraDBF=F KetDBF=T FulRan=T
         wScrn=  0.000000 ICntrl=     500 IOpCl=  0 I1Cent=   200000004 NGrid=           0
         NMat0=    1 NMatS0=      1 NMatT0=    0 NMatD0=    1 NMtDS0=    0 NMtDT0=    0
 Petite list used in FoFCou.
 Harris En= -95.9227819912071    
 Leave Link  401 at Sat Feb 16 13:48:16 2019, MaxMem=   196608000 cpu:         2.0
 (Enter /cm/shared/c3ddb/gaussian/09.d01/g09/l502.exe)
 Closed shell SCF:
 Using DIIS extrapolation, IDIIS=  1040.
 Integral symmetry usage will be decided dynamically.
 Keep R1 ints in memory in canonical form, NReq=3356022.
 IVT=       20876 IEndB=       20876 NGot=   196608000 MDV=   194141759
 LenX=   194141759 LenY=   194136694
 Requested convergence on RMS density matrix=1.00D-08 within  64 cycles.
 Requested convergence on MAX density matrix=1.00D-06.
 Requested convergence on             energy=1.00D-06.
 No special actions if energy rises.
 FoFCou: FMM=F IPFlag=           0 FMFlag=           0 FMFlg1=           0
         NFxFlg=           0 DoJE=F BraDBF=F KetDBF=F FulRan=T
         wScrn=  0.000000 ICntrl=     600 IOpCl=  0 I1Cent=           0 NGrid=           0
         NMat0=    1 NMatS0=   2211 NMatT0=    0 NMatD0=    1 NMtDS0=    0 NMtDT0=    0
 Symmetry not used in FoFCou.
 Integral accuracy reduced to 1.0D-05 until final iterations.

 Cycle   1  Pass 0  IDiag  1:
 E= -95.8876386447496    
 DIIS: error= 4.45D-03 at cycle   1 NSaved=   1.
 NSaved= 1 IEnMin= 1 EnMin= -95.8876386447496     IErMin= 1 ErrMin= 4.45D-03
 ErrMax= 4.45D-03  0.00D+00 EMaxC= 1.00D-01 BMatC= 6.46D-04 BMatP= 6.46D-04
 IDIUse=3 WtCom= 9.55D-01 WtEn= 4.45D-02
 Coeff-Com:  0.100D+01
 Coeff-En:   0.100D+01
 Coeff:      0.100D+01
 Gap=     0.546 Goal=   None    Shift=    0.000
 GapD=    0.546 DampG=2.000 DampE=1.000 DampFc=2.0000 IDamp=-1.
 RMSDP=5.45D-04 MaxDP=9.92D-03              OVMax= 1.45D-02

 Cycle   2  Pass 0  IDiag  1:
 E= -95.8884046023980     Delta-E=       -0.000765957648 Rises=F Damp=F
 DIIS: error= 3.60D-04 at cycle   2 NSaved=   2.
 NSaved= 2 IEnMin= 2 EnMin= -95.8884046023980     IErMin= 2 ErrMin= 3.60D-04
 ErrMax= 3.60D-04  0.00D+00 EMaxC= 1.00D-01 BMatC= 1.32D-05 BMatP= 6.46D-04
 IDIUse=3 WtCom= 9.96D-01 WtEn= 3.60D-03
 Coeff-Com: -0.289D-01 0.103D+01
 Coeff-En:   0.000D+00 0.100D+01
 Coeff:     -0.288D-01 0.103D+01
 Gap=     0.275 Goal=   None    Shift=    0.000
 RMSDP=8.23D-05 MaxDP=2.12D-03 DE=-7.66D-04 OVMax= 2.14D-03

 Cycle   3  Pass 0  IDiag  1:
 E= -95.8884015349617     Delta-E=        0.000003067436 Rises=F Damp=F
 DIIS: error= 6.46D-04 at cycle   3 NSaved=   3.
 NSaved= 3 IEnMin= 2 EnMin= -95.8884046023980     IErMin= 2 ErrMin= 3.60D-04
 ErrMax= 6.46D-04  0.00D+00 EMaxC= 1.00D-01 BMatC= 2.06D-05 BMatP= 1.32D-05
 IDIUse=3 WtCom= 2.82D-01 WtEn= 7.18D-01
 Coeff-Com: -0.323D-01 0.590D+00 0.442D+00
 Coeff-En:   0.000D+00 0.559D+00 0.441D+00
 Coeff:     -0.913D-02 0.568D+00 0.441D+00
 Gap=     0.276 Goal=   None    Shift=    0.000
 RMSDP=4.22D-05 MaxDP=8.71D-04 DE= 3.07D-06 OVMax= 1.20D-03

 Cycle   4  Pass 0  IDiag  1:
 E= -95.8884177605321     Delta-E=       -0.000016225570 Rises=F Damp=F
 DIIS: error= 6.83D-05 at cycle   4 NSaved=   4.
 NSaved= 4 IEnMin= 4 EnMin= -95.8884177605321     IErMin= 4 ErrMin= 6.83D-05
 ErrMax= 6.83D-05  0.00D+00 EMaxC= 1.00D-01 BMatC= 1.99D-07 BMatP= 1.32D-05
 IDIUse=1 WtCom= 1.00D+00 WtEn= 0.00D+00
 Coeff-Com: -0.234D-02 0.114D-01 0.920D-01 0.899D+00
 Coeff:     -0.234D-02 0.114D-01 0.920D-01 0.899D+00
 Gap=     0.276 Goal=   None    Shift=    0.000
 RMSDP=7.70D-06 MaxDP=1.47D-04 DE=-1.62D-05 OVMax= 1.98D-04

 Initial convergence to 1.0D-05 achieved.  Increase integral accuracy.
 Cycle   5  Pass 1  IDiag  1:
 E= -95.8884272531068     Delta-E=       -0.000009492575 Rises=F Damp=F
 DIIS: error= 1.63D-05 at cycle   1 NSaved=   1.
 NSaved= 1 IEnMin= 1 EnMin= -95.8884272531068     IErMin= 1 ErrMin= 1.63D-05
 ErrMax= 1.63D-05  0.00D+00 EMaxC= 1.00D-01 BMatC= 1.65D-08 BMatP= 1.65D-08
 IDIUse=1 WtCom= 1.00D+00 WtEn= 0.00D+00
 Coeff-Com:  0.100D+01
 Coeff:      0.100D+01
 Gap=     0.276 Goal=   None    Shift=    0.000
 RMSDP=7.70D-06 MaxDP=1.47D-04 DE=-9.49D-06 OVMax= 7.18D-05

 Cycle   6  Pass 1  IDiag  1:
 E= -95.8884272489453     Delta-E=        0.000000004162 Rises=F Damp=F
 DIIS: error= 1.78D-05 at cycle   2 NSaved=   2.
 NSaved= 2 IEnMin= 1 EnMin= -95.8884272531068     IErMin= 1 ErrMin= 1.63D-05
 ErrMax= 1.78D-05  0.00D+00 EMaxC= 1.00D-01 BMatC= 2.04D-08 BMatP= 1.65D-08
 IDIUse=1 WtCom= 1.00D+00 WtEn= 0.00D+00
 Coeff-Com:  0.527D+00 0.473D+00
 Coeff:      0.527D+00 0.473D+00
 Gap=     0.276 Goal=   None    Shift=    0.000
 RMSDP=1.34D-06 MaxDP=3.41D-05 DE= 4.16D-09 OVMax= 4.16D-05

 Cycle   7  Pass 1  IDiag  1:
 E= -95.8884272680755     Delta-E=       -0.000000019130 Rises=F Damp=F
 DIIS: error= 1.71D-06 at cycle   3 NSaved=   3.
 NSaved= 3 IEnMin= 3 EnMin= -95.8884272680755     IErMin= 3 ErrMin= 1.71D-06
 ErrMax= 1.71D-06  0.00D+00 EMaxC= 1.00D-01 BMatC= 1.20D-10 BMatP= 1.65D-08
 IDIUse=1 WtCom= 1.00D+00 WtEn= 0.00D+00
 Coeff-Com:  0.704D-01 0.110D+00 0.820D+00
 Coeff:      0.704D-01 0.110D+00 0.820D+00
 Gap=     0.276 Goal=   None    Shift=    0.000
 RMSDP=1.62D-07 MaxDP=2.87D-06 DE=-1.91D-08 OVMax= 4.63D-06

 Cycle   8  Pass 1  IDiag  1:
 E= -95.8884272681612     Delta-E=       -0.000000000086 Rises=F Damp=F
 DIIS: error= 6.45D-07 at cycle   4 NSaved=   4.
 NSaved= 4 IEnMin= 4 EnMin= -95.8884272681612     IErMin= 4 ErrMin= 6.45D-07
 ErrMax= 6.45D-07  0.00D+00 EMaxC= 1.00D-01 BMatC= 2.72D-11 BMatP= 1.20D-10
 IDIUse=1 WtCom= 1.00D+00 WtEn= 0.00D+00
 Coeff-Com:  0.529D-02 0.310D-01 0.420D+00 0.544D+00
 Coeff:      0.529D-02 0.310D-01 0.420D+00 0.544D+00
 Gap=     0.276 Goal=   None    Shift=    0.000
 RMSDP=5.12D-08 MaxDP=1.17D-06 DE=-8.57D-11 OVMax= 1.35D-06

 Cycle   9  Pass 1  IDiag  1:
 E= -95.8884272681815     Delta-E=       -0.000000000020 Rises=F Damp=F
 DIIS: error= 1.72D-07 at cycle   5 NSaved=   5.
 NSaved= 5 IEnMin= 5 EnMin= -95.8884272681815     IErMin= 5 ErrMin= 1.72D-07
 ErrMax= 1.72D-07  0.00D+00 EMaxC= 1.00D-01 BMatC= 1.49D-12 BMatP= 2.72D-11
 IDIUse=1 WtCom= 1.00D+00 WtEn= 0.00D+00
 Coeff-Com: -0.771D-02 0.365D-03 0.940D-01 0.240D+00 0.673D+00
 Coeff:     -0.771D-02 0.365D-03 0.940D-01 0.240D+00 0.673D+00
 Gap=     0.276 Goal=   None    Shift=    0.000
 RMSDP=1.54D-08 MaxDP=1.50D-07 DE=-2.03D-11 OVMax= 4.78D-07

 Cycle  10  Pass 1  IDiag  1:
 E= -95.8884272681825     Delta-E=       -0.000000000001 Rises=F Damp=F
 DIIS: error= 9.65D-09 at cycle   6 NSaved=   6.
 NSaved= 6 IEnMin= 6 EnMin= -95.8884272681825     IErMin= 6 ErrMin= 9.65D-09
 ErrMax= 9.65D-09  0.00D+00 EMaxC= 1.00D-01 BMatC= 7.03D-15 BMatP= 1.49D-12
 IDIUse=1 WtCom= 1.00D+00 WtEn= 0.00D+00
 Coeff-Com: -0.797D-03-0.463D-03 0.275D-02 0.374D-02 0.407D-01 0.954D+00
 Coeff:     -0.797D-03-0.463D-03 0.275D-02 0.374D-02 0.407D-01 0.954D+00
 Gap=     0.276 Goal=   None    Shift=    0.000
 RMSDP=2.93D-09 MaxDP=4.37D-08 DE=-1.05D-12 OVMax= 8.38D-08

 SCF Done:  E(RB3LYP) =  -95.8884272682     A.U. after   10 cycles
            NFock= 10  Conv=0.29D-08     -V/T= 2.0041
 KE= 9.549409723870D+01 PE=-3.070103136316D+02 EE= 7.369553973850D+01
 Leave Link  502 at Sat Feb 16 13:48:22 2019, MaxMem=   196608000 cpu:        38.1
 (Enter /cm/shared/c3ddb/gaussian/09.d01/g09/l508.exe)
 QCSCF skips out because SCF is already converged.
 Leave Link  508 at Sat Feb 16 13:48:22 2019, MaxMem=   196608000 cpu:         0.0
 (Enter /cm/shared/c3ddb/gaussian/09.d01/g09/l701.exe)
 Compute integral first derivatives.
 ... and contract with generalized density number  0.
 Leave Link  701 at Sat Feb 16 13:48:23 2019, MaxMem=   196608000 cpu:         3.6
 (Enter /cm/shared/c3ddb/gaussian/09.d01/g09/l702.exe)
 L702 exits ... SP integral derivatives will be done elsewhere.
 Leave Link  702 at Sat Feb 16 13:48:23 2019, MaxMem=   196608000 cpu:         0.2
 (Enter /cm/shared/c3ddb/gaussian/09.d01/g09/l703.exe)
 Compute integral first derivatives, UseDBF=F ICtDFT=           0.
 Integral derivatives from FoFJK, PRISM(SPDF).
 Calling FoFJK, ICntrl=      2127 FMM=F ISym2X=0 I1Cent= 0 IOpClX= 0 NMat=1 NMatS=1 NMatT=0.
 FoFJK:  IHMeth= 1 ICntrl=    2127 DoSepK=F KAlg= 0 I1Cent=   0 FoldK=F
 IRaf=         0 NMat=   1 IRICut=       1 DoRegI=T DoRafI=F ISym2E= 0.
 FoFCou: FMM=F IPFlag=           0 FMFlag=      100000 FMFlg1=         800
         NFxFlg=           0 DoJE=F BraDBF=F KetDBF=F FulRan=T
         wScrn=  0.000000 ICntrl=    2127 IOpCl=  0 I1Cent=           0 NGrid=           0
         NMat0=    1 NMatS0=      1 NMatT0=    0 NMatD0=    1 NMtDS0=    0 NMtDT0=    0
 Symmetry not used in FoFCou.
 Leave Link  703 at Sat Feb 16 13:48:24 2019, MaxMem=   196608000 cpu:         5.5
 (Enter /cm/shared/c3ddb/gaussian/09.d01/g09/l716.exe)
 Dipole        =-7.58369772D-02-8.15271826D-08 5.33696553D-01
 ***** Axes restored to original set *****
 -------------------------------------------------------------------
 Center     Atomic                   Forces (Hartrees/Bohr)
 Number     Number              X              Y              Z
 -------------------------------------------------------------------
      1        7           0.001056349    0.000319680   -0.000538678
      2        6           0.000689092   -0.000078469    0.000122542
      3        1          -0.000018760   -0.000221080   -0.000302792
      4        1          -0.000216842   -0.000327406    0.000542817
      5        1          -0.000015102    0.000370907    0.000055742
      6        1          -0.000750325   -0.000509304   -0.000229006
      7        1          -0.000744412    0.000445672    0.000349376
[...]
 DIIS: error= 2.30D-04 at cycle   3 NSaved=   3.
 NSaved= 3 IEnMin= 3 EnMin= -95.2515009443403     IErMin= 3 ErrMin= 2.30D-04
 ErrMax= 2.30D-04  0.00D+00 EMaxC= 1.00D-01 BMatC= 2.98D-06 BMatP= 9.57D-05
 IDIUse=3 WtCom= 9.98D-01 WtEn= 2.30D-03
 Coeff-Com: -0.625D-02 0.568D-01 0.949D+00
 Coeff-En:   0.000D+00 0.000D+00 0.100D+01
 Coeff:     -0.624D-02 0.566D-01 0.950D+00
 Gap=     0.433 Goal=   None    Shift=    0.000
 RMSDP=2.48D-05 MaxDP=3.82D-04 DE=-7.15D-05 OVMax= 6.33D-04

 Cycle   4  Pass 1  IDiag  1:
 E= -95.2515040949612     Delta-E=       -0.000003150621 Rises=F Damp=F
 DIIS: error= 6.15D-05 at cycle   4 NSaved=   4.
 NSaved= 4 IEnMin= 4 EnMin= -95.2515040949612     IErMin= 4 ErrMin= 6.15D-05
 ErrMax= 6.15D-05  0.00D+00 EMaxC= 1.00D-01 BMatC= 3.95D-07 BMatP= 2.98D-06
 IDIUse=1 WtCom= 1.00D+00 WtEn= 0.00D+00
 Coeff-Com:  0.263D-02-0.542D-01 0.178D+00 0.874D+00
 Coeff:      0.263D-02-0.542D-01 0.178D+00 0.874D+00
 Gap=     0.433 Goal=   None    Shift=    0.000
 RMSDP=8.27D-06 MaxDP=1.96D-04 DE=-3.15D-06 OVMax= 1.97D-04

 Cycle   5  Pass 1  IDiag  1:
 E= -95.2515045633592     Delta-E=       -0.000000468398 Rises=F Damp=F
 DIIS: error= 1.50D-05 at cycle   5 NSaved=   5.
 NSaved= 5 IEnMin= 5 EnMin= -95.2515045633592     IErMin= 5 ErrMin= 1.50D-05
 ErrMax= 1.50D-05  0.00D+00 EMaxC= 1.00D-01 BMatC= 1.65D-08 BMatP= 3.95D-07
 IDIUse=1 WtCom= 1.00D+00 WtEn= 0.00D+00
 Coeff-Com:  0.212D-03-0.327D-02-0.376D-01 0.208D-01 0.102D+01
 Coeff:      0.212D-03-0.327D-02-0.376D-01 0.208D-01 0.102D+01
 Gap=     0.433 Goal=   None    Shift=    0.000
 RMSDP=2.63D-06 MaxDP=5.11D-05 DE=-4.68D-07 OVMax= 9.30D-05

 Cycle   6  Pass 1  IDiag  1:
 E= -95.2515045973584     Delta-E=       -0.000000033999 Rises=F Damp=F
 DIIS: error= 4.28D-06 at cycle   6 NSaved=   6.
 NSaved= 6 IEnMin= 6 EnMin= -95.2515045973584     IErMin= 6 ErrMin= 4.28D-06
 ErrMax= 4.28D-06  0.00D+00 EMaxC= 1.00D-01 BMatC= 2.33D-09 BMatP= 1.65D-08
 IDIUse=1 WtCom= 1.00D+00 WtEn= 0.00D+00
 Coeff-Com: -0.119D-03 0.325D-02-0.216D-01-0.732D-01 0.139D+00 0.953D+00
 Coeff:     -0.119D-03 0.325D-02-0.216D-01-0.732D-01 0.139D+00 0.953D+00
 Gap=     0.433 Goal=   None    Shift=    0.000
 RMSDP=1.14D-06 MaxDP=2.53D-05 DE=-3.40D-08 OVMax= 3.86D-05

 Cycle   7  Pass 1  IDiag  1:
 E= -95.2515046019221     Delta-E=       -0.000000004564 Rises=F Damp=F
 DIIS: error= 1.51D-06 at cycle   7 NSaved=   7.
 NSaved= 7 IEnMin= 7 EnMin= -95.2515046019221     IErMin= 7 ErrMin= 1.51D-06
 ErrMax= 1.51D-06  0.00D+00 EMaxC= 1.00D-01 BMatC= 2.01D-10 BMatP= 2.33D-09
 IDIUse=1 WtCom= 1.00D+00 WtEn= 0.00D+00
 Coeff-Com: -0.212D-04 0.182D-03 0.543D-02-0.296D-03-0.103D+00 0.269D-01
 Coeff-Com:  0.107D+01
 Coeff:     -0.212D-04 0.182D-03 0.543D-02-0.296D-03-0.103D+00 0.269D-01
 Coeff:      0.107D+01
 Gap=     0.433 Goal=   None    Shift=    0.000
 RMSDP=3.49D-07 MaxDP=9.62D-06 DE=-4.56D-09 OVMax= 1.68D-05

 Cycle   8  Pass 1  IDiag  1:
 E= -95.2515046024554     Delta-E=       -0.000000000533 Rises=F Damp=F
 DIIS: error= 4.56D-07 at cycle   8 NSaved=   8.
 NSaved= 8 IEnMin= 8 EnMin= -95.2515046024554     IErMin= 8 ErrMin= 4.56D-07
 ErrMax= 4.56D-07  0.00D+00 EMaxC= 1.00D-01 BMatC= 1.80D-11 BMatP= 2.01D-10
 IDIUse=1 WtCom= 1.00D+00 WtEn= 0.00D+00
 Coeff-Com:  0.213D-04-0.501D-03 0.254D-02 0.854D-02-0.140D-01-0.103D+00
 Coeff-Com: -0.719D-01 0.118D+01
 Coeff:      0.213D-04-0.501D-03 0.254D-02 0.854D-02-0.140D-01-0.103D+00
 Coeff:     -0.719D-01 0.118D+01
 Gap=     0.433 Goal=   None    Shift=    0.000
 RMSDP=9.67D-08 MaxDP=2.84D-06 DE=-5.33D-10 OVMax= 6.63D-06

 Cycle   9  Pass 1  IDiag  1:
 E= -95.2515046025110     Delta-E=       -0.000000000056 Rises=F Damp=F
 DIIS: error= 1.17D-07 at cycle   9 NSaved=   9.
 NSaved= 9 IEnMin= 9 EnMin= -95.2515046025110     IErMin= 9 ErrMin= 1.17D-07
 ErrMax= 1.17D-07  0.00D+00 EMaxC= 1.00D-01 BMatC= 6.14D-13 BMatP= 1.80D-11
 IDIUse=1 WtCom= 1.00D+00 WtEn= 0.00D+00
 Coeff-Com: -0.455D-05 0.119D-03-0.830D-03-0.233D-02 0.732D-02 0.309D-01
 Coeff-Com: -0.229D-01-0.357D+00 0.134D+01
 Coeff:     -0.455D-05 0.119D-03-0.830D-03-0.233D-02 0.732D-02 0.309D-01
 Coeff:     -0.229D-01-0.357D+00 0.134D+01
 Gap=     0.433 Goal=   None    Shift=    0.000
 RMSDP=2.51D-08 MaxDP=5.46D-07 DE=-5.56D-11 OVMax= 1.33D-06

 Cycle  10  Pass 1  IDiag  1:
 E= -95.2515046025136     Delta-E=       -0.000000000003 Rises=F Damp=F
 DIIS: error= 2.49D-08 at cycle  10 NSaved=  10.
 NSaved=10 IEnMin=10 EnMin= -95.2515046025136     IErMin=10 ErrMin= 2.49D-08
 ErrMax= 2.49D-08  0.00D+00 EMaxC= 1.00D-01 BMatC= 2.33D-14 BMatP= 6.14D-13
 IDIUse=1 WtCom= 1.00D+00 WtEn= 0.00D+00
 Coeff-Com:  0.105D-05-0.295D-04 0.237D-03 0.576D-03-0.223D-02-0.829D-02
 Coeff-Com:  0.125D-01 0.877D-01-0.491D+00 0.140D+01
 Coeff:      0.105D-05-0.295D-04 0.237D-03 0.576D-03-0.223D-02-0.829D-02
 Coeff:      0.125D-01 0.877D-01-0.491D+00 0.140D+01
 Gap=     0.433 Goal=   None    Shift=    0.000
 RMSDP=4.25D-09 MaxDP=1.10D-07 DE=-2.53D-12 OVMax= 2.65D-07

 SCF Done:  E(RHF) =  -95.2515046025     A.U. after   10 cycles
            NFock= 10  Conv=0.42D-08     -V/T= 2.0014
 KE= 9.512173549186D+01 PE=-3.063281767264D+02 EE= 7.403066611522D+01
 Leave Link  502 at Sat Feb 16 13:49:24 2019, MaxMem=   196608000 cpu:        12.2
 (Enter /cm/shared/c3ddb/gaussian/09.d01/g09/l508.exe)
 QCSCF skips out because SCF is already converged.
 Leave Link  508 at Sat Feb 16 13:49:24 2019, MaxMem=   196608000 cpu:         0.0
 (Enter /cm/shared/c3ddb/gaussian/09.d01/g09/l801.exe)
 ExpMin= 3.60D-02 ExpMax= 6.29D+03 ExpMxC= 9.49D+02 IAcc=3 IRadAn=         5 AccDes= 0.00D+00
 HarFok:  IExCor=  205 AccDes= 0.00D+00 IRadAn=         5 IDoV=-2 UseB2=F ITyADJ=14
 ICtDFT= 12500011 ScaDFX=  1.000000  1.000000  1.000000  1.000000
 Largest valence mixing into a core orbital is  1.26D-04
 Largest core mixing into a valence orbital is  3.23D-05
 Range of M.O.s used for correlation:     3   118
 NBasis=   118 NAE=     9 NBE=     9 NFC=     2 NFV=     0
 NROrb=    116 NOA=     7 NOB=     7 NVA=   109 NVB=   109

 **** Warning!!: The largest alpha MO coefficient is  0.17961142D+02

 Leave Link  801 at Sat Feb 16 13:49:24 2019, MaxMem=   196608000 cpu:         0.8
 (Enter /cm/shared/c3ddb/gaussian/09.d01/g09/l906.exe)
 FulOut=F Deriv=F AODrv=F NAtomX=     7
   MMem=           0  MDisk=           7 MDiskD=           7
  W3Min=       97664 MinDsk=      272495 NBas6D=         128
 NBas2D=        8484    NTT=        8256    LW2=     2000000
    MDV=   196519266 MDiskM=        7598 NBas2p=        8484
 Disk-based method using OVN memory for  7 occupieds at a time.
 Permanent disk used for amplitudes and <ij||ab> integrals=     1411550 words.
 Estimated scratch disk usage=    21405772 words.
 IMap=   1   2   3   4   5   6   7
 Actual    scratch disk usage=    16924236 words.
 JobTyp=1 Pass  1:  I=   1 to   7 NPSUse=  8 ParTrn=T ParDer=T DoDerP=F.
 (rs|ai) integrals will be sorted in core.
 Spin components of T(2) and E(2):
     alpha-alpha T2 =       0.1369612501D-01 E2=     -0.4397339477D-01
     alpha-beta  T2 =       0.8939084696D-01 E2=     -0.3084787162D+00
     beta-beta   T2 =       0.1369612501D-01 E2=     -0.4397339477D-01
 The integrals were generated   1 times.
 ANorm=    0.1056779588D+01
 E2 =    -0.3964255058D+00 EUMP2 =    -0.95647930108297D+02
 Leave Link  906 at Sat Feb 16 13:49:29 2019, MaxMem=   196608000 cpu:        32.5
 (Enter /cm/shared/c3ddb/gaussian/09.d01/g09/l904.exe)

 Complete Basis Set (CBS) Extrapolation:
 M. R. Nyden and G. A. Petersson, JCP 75, 1843 (1981)
 G. A. Petersson and M. A. Al-Laham, JCP 94, 6081 (1991)
 G. A. Petersson, T. Tensfeldt, and J. A. Montgomery, JCP 94, 6091 (1991)
 J. A. Montgomery, J. W. Ochterski, and G. A. Petersson, JCP 101, 5900 (1994)
 
 Available Memory in CBS =  196608000
 Minimum Number of PNO for Extrapolation =  10
 Absolute Overlaps: IRadAn =     99590
 LocTrn: ILocal=3 LocCor=F DoCore=F.
 LocMO: Using population method
 Initial Trace= 0.70000000D+01 Initial TraceA= 0.24725631D+01
 RMSG= 0.37106679D-09
 There are a total of      351640 grid points.
 ElSum from         orbitals=        8.9999999152
 E2(CBS)=      -0.435531 CBS-Int=       0.013666 OIii=       3.724314
 Leave Link  904 at Sat Feb 16 13:49:31 2019, MaxMem=   196608000 cpu:        17.5
 (Enter /cm/shared/c3ddb/gaussian/09.d01/g09/l601.exe)
 Copying SCF densities to generalized density rwf, IOpCl= 0 IROHF=0.

 **********************************************************************

            Population analysis using the SCF density.

 **********************************************************************

 Orbital symmetries:
       Occupied  (A) (A) (A) (A) (A) (A) (A) (A) (A)
       Virtual   (A) (A) (A) (A) (A) (A) (A) (A) (A) (A) (A) (A)
                 (A) (A) (A) (A) (A) (A) (A) (A) (A) (A) (A) (A)
                 (A) (A) (A) (A) (A) (A) (A) (A) (A) (A) (A) (A)
                 (A) (A) (A) (A) (A) (A) (A) (A) (A) (A) (A) (A)
                 (A) (A) (A) (A) (A) (A) (A) (A) (A) (A) (A) (A)
                 (A) (A) (A) (A) (A) (A) (A) (A) (A) (A) (A) (A)
                 (A) (A) (A) (A) (A) (A) (A) (A) (A) (A) (A) (A)
                 (A) (A) (A) (A) (A) (A) (A) (A) (A) (A) (A) (A)
                 (A) (A) (A) (A) (A) (A) (A) (A) (A) (A) (A) (A)
                 (A)
 The electronic state is 1-A.
 Alpha  occ. eigenvalues --  -15.53957 -11.24149  -1.16885  -0.89487  -0.66133
 Alpha  occ. eigenvalues --   -0.60258  -0.55531  -0.51610  -0.39245
 Alpha virt. eigenvalues --    0.04020   0.06179   0.06637   0.07571   0.09834
 Alpha virt. eigenvalues --    0.12612   0.15972   0.16080   0.18513   0.21455
 Alpha virt. eigenvalues --    0.24004   0.24920   0.29576   0.29933   0.30987
 Alpha virt. eigenvalues --    0.32319   0.35351   0.35838   0.44370   0.56791
 Alpha virt. eigenvalues --    0.57831   0.64579   0.67459   0.72315   0.74613
 Alpha virt. eigenvalues --    0.75838   0.77084   0.78418   0.81193   0.83845
 Alpha virt. eigenvalues --    0.85194   0.90097   0.95911   1.04076   1.05011
 Alpha virt. eigenvalues --    1.10391   1.11830   1.20056   1.28014   1.28501
 Alpha virt. eigenvalues --    1.33430   1.36707   1.38997   1.44508   1.48328
 Alpha virt. eigenvalues --    1.49439   1.56985   1.62998   1.67826   1.68828
 Alpha virt. eigenvalues --    1.72668   1.76650   1.88089   1.89972   1.98403
 Alpha virt. eigenvalues --    2.13829   2.15706   2.67041   2.69818   2.78793
 Alpha virt. eigenvalues --    2.98981   3.05557   3.25722   3.34626   3.35624
 Alpha virt. eigenvalues --    3.39318   3.46435   3.48855   3.59306   3.61955
 Alpha virt. eigenvalues --    3.66601   3.70201   3.71532   3.79270   3.87407
 Alpha virt. eigenvalues --    4.03758   4.07097   4.11857   4.15675   4.18741
 Alpha virt. eigenvalues --    4.25011   4.29042   4.30662   4.42634   4.51604
 Alpha virt. eigenvalues --    4.51627   4.59675   4.63357   4.67198   4.69616
 Alpha virt. eigenvalues --    4.85838   5.03781   5.05203   5.15253   5.20298
 Alpha virt. eigenvalues --    5.26733   5.30304   5.60466   5.66621   5.72031
 Alpha virt. eigenvalues --    5.79190   5.98326   6.04527   6.14067   6.25777
 Alpha virt. eigenvalues --    6.60723   6.96019  25.48859  37.15013
          Condensed to atoms (all electrons):
               1          2          3          4          5          6
     1  N    6.420034   0.255407  -0.046627  -0.054331  -0.046627   0.405010
     2  C    0.255407   4.697218   0.424273   0.417472   0.424273  -0.052608
     3  H   -0.046627   0.424273   0.634105  -0.042381  -0.028258  -0.004489
     4  H   -0.054331   0.417472  -0.042381   0.689507  -0.042381  -0.001195
     5  H   -0.046627   0.424273  -0.028258  -0.042381   0.634105   0.005945
     6  H    0.405010  -0.052608  -0.004489  -0.001195   0.005945   0.534947
     7  H    0.405010  -0.052608   0.005945  -0.001195  -0.004489  -0.038579
               7
     1  N    0.405010
     2  C   -0.052608
     3  H    0.005945
     4  H   -0.001195
     5  H   -0.004489
     6  H   -0.038579
     7  H    0.534947
 Mulliken charges:
               1
     1  N   -0.337878
     2  C   -0.113427
     3  H    0.057432
     4  H    0.034503
     5  H    0.057432
     6  H    0.150969
     7  H    0.150969
 Sum of Mulliken charges =   0.00000
 Mulliken charges with hydrogens summed into heavy atoms:
               1
     1  N   -0.035940
     2  C    0.035940
 Electronic spatial extent (au):  <R**2>=             95.8175
 Charge=              0.0000 electrons
 Dipole moment (field-independent basis, Debye):
    X=             -0.3134    Y=              0.0000    Z=              1.4155  Tot=              1.4498
 Quadrupole moment (field-independent basis, Debye-Ang):
   XX=            -14.0434   YY=            -12.6278   ZZ=            -15.4963
   XY=              0.0000   XZ=              2.1312   YZ=              0.0000
 Traceless Quadrupole moment (field-independent basis, Debye-Ang):
   XX=              0.0124   YY=              1.4281   ZZ=             -1.4405
   XY=              0.0000   XZ=              2.1312   YZ=              0.0000
 Octapole moment (field-independent basis, Debye-Ang**2):
  XXX=              2.5982  YYY=              0.0000  ZZZ=              1.8295  XYY=              2.0514
  XXY=              0.0000  XXZ=              2.3317  XZZ=             -0.8390  YZZ=              0.0000
  YYZ=              0.4352  XYZ=              0.0000
 Hexadecapole moment (field-independent basis, Debye-Ang**3):
 XXXX=            -76.8312 YYYY=            -23.4201 ZZZZ=            -25.6824 XXXY=              0.0000
 XXXZ=              4.3505 YYYX=              0.0000 YYYZ=              0.0000 ZZZX=              1.7913
 ZZZY=              0.0000 XXYY=            -14.5425 XXZZ=            -18.1150 YYZZ=             -8.1261
 XXYZ=              0.0000 YYXZ=              2.2187 ZZXY=              0.0000
 N-N= 4.192427051676D+01 E-N=-3.063281766554D+02  KE= 9.512173549186D+01
 Leave Link  601 at Sat Feb 16 13:49:32 2019, MaxMem=   196608000 cpu:         1.5
 (Enter /cm/shared/c3ddb/gaussian/09.d01/g09/l9999.exe)
 1\1\GINC-NODE028\SP\RMP2-FC\CBSB3\C1H5N1\DUMINDA\16-Feb-2019\0\\#P Geo
 m=AllCheck Guess=TCheck SCRF=Check MP2/CBSB3 CBSExtrap=(NMin=10,MinPop
 )\\name\\0,1\N,0,0.8242672818,0.2061909323,-0.3488522465\C,0,-0.569810
 0784,-0.0227941751,0.0434411035\H,0,-1.084798657,-0.5629559341,-0.7553
 885162\H,0,-0.7137702847,-0.5879860497,0.9781339807\H,0,-1.0755266527,
 0.9399917094,0.154844799\H,0,1.3055334577,-0.6810132728,-0.4568770042\
 H,0,1.3141059333,0.7085668031,0.3846968915\\Version=AS64L-G09RevD.01\S
 tate=1-A\HF=-95.2515046\MP2=-95.6479301\E2(CBS)=-0.435531\CBS-Int=-0.4
 218646\OIii=3.7243144\RMSD=4.246e-09\PG=C01 [X(C1H5N1)]\\@


    WHAT WE HAVE LEARNED
 IS LIKE A HANDFUL OF EARTH;
  WHAT WE HAVE YET TO LEARN
   IS LIKE THE WHOLE WORLD.

         -- AVVAYIAR
 Diagonal vibrational polarizability:
        0.0000000       0.0000000       0.0000000

 Complete Basis Set (CBS) Extrapolation:
 M. R. Nyden and G. A. Petersson, JCP 75, 1843 (1981)
 G. A. Petersson and M. A. Al-Laham, JCP 94, 6081 (1991)
 G. A. Petersson, T. Tensfeldt, and J. A. Montgomery, JCP 94, 6091 (1991)
 J. A. Montgomery, J. W. Ochterski, and G. A. Petersson, JCP 101, 5900 (1994)

 Temperature=               298.150000 Pressure=                       1.000000
 E(ZPE)=                      0.063170 E(Thermal)=                     0.066593
 E(SCF)=                    -95.251505 DE(MP2)=                       -0.396426
 DE(CBS)=                    -0.039105 DE(MP34)=                      -0.028185
 DE(CCSD)=                   -0.008522 DE(Int)=                        0.013666
 DE(Empirical)=              -0.021564
 CBS-QB3 (0 K)=             -95.668470 CBS-QB3 Energy=               -95.665047
 CBS-QB3 Enthalpy=          -95.664103 CBS-QB3 Free Energy=          -95.691389
 1\1\GINC-NODE028\Mixed\CBS-QB3\CBS-QB3\C1H5N1\DUMINDA\16-Feb-2019\0\\#
 P opt=(noeigentest, calcfc) cbs-qb3 scf=xqc\\name\\0,1\N,0,0.824267281
 8,0.2061909323,-0.3488522465\C,0,-0.5698100784,-0.0227941751,0.0434411
 035\H,0,-1.084798657,-0.5629559341,-0.7553885162\H,0,-0.7137702847,-0.
 5879860497,0.9781339807\H,0,-1.0755266527,0.9399917094,0.154844799\H,0
 ,1.3055334577,-0.6810132728,-0.4568770042\H,0,1.3141059333,0.708566803
 1,0.3846968915\\Version=AS64L-G09RevD.01\State=1-A\HF/CbsB3=-95.251504
 6\E2(CBS)/CbsB3=-0.435531\CBS-Int/CbsB3=0.0136664\OIii/CbsB3=3.7243144
 \MP2/CbsB4=-95.5618487\MP4(SDQ)/CbsB4=-95.5900341\MP4(SDQ)/6-31+G(d')=
 -95.5432365\QCISD(T)/6-31+G(d')=-95.5517586\CBSQB3=-95.6684701\FreqCoo
 rd=1.5576394229,0.3896443905,-0.6592352082,-1.076784996,-0.0430747504,
 0.0820917873,-2.049972371,-1.0638325403,-1.4274774195,-1.3488303598,-1
 .1111326039,1.8484053448,-2.0324508221,1.7763268979,0.2926142632,2.467
 1006924,-1.2869285784,-0.8633724143,2.4833003235,1.3389972048,0.726971
 7692\PG=C01 [X(C1H5N1)]\NImag=0\\0.53422631,-0.03979219,0.54951500,0.0
 6712775,0.20600869,0.33319617,-0.20330468,-0.00888037,0.01570756,0.484
 45871,-0.03409043,-0.09323081,-0.01207964,-0.01669441,0.57275796,0.057
 33361,-0.01233644,-0.08097141,0.02862352,0.02591346,0.54526992,-0.0222
 8227,-0.02209645,-0.02235773,-0.09655774,-0.05329250,-0.08169720,0.115
 55441,-0.00384349,-0.00249206,-0.00259560,-0.05723132,-0.11163843,-0.0
 9415075,0.06668530,0.11675774,0.00492689,0.00677514,0.01063464,-0.0877
 7527,-0.09725961,-0.19467579,0.09211714,0.10394063,0.20576457,-0.01607
 943,-0.01936845,0.03218057,-0.05097415,-0.00786546,0.01296512,0.002041
 01,0.00806619,-0.01119347,0.05972933,-0.00663021,0.00131277,0.00377199
 ,-0.00692103,-0.11362407,0.09993937,0.00171045,0.00918503,-0.01373850,
 0.01335806,0.11723449,0.01114761,0.00390174,-0.00299968,0.01140572,0.0
 9994900,-0.21828899,0.00016287,0.01332053,-0.02106483,-0.02217787,-0.1
 1477828,0.23754756,-0.02195003,0.03028599,0.00934135,-0.09464724,0.095
 53391,0.00942144,0.00767248,-0.01321036,-0.00025585,0.00201293,-0.0009
 4683,-0.00144678,0.11335643,-0.00229858,0.00928292,0.00041826,0.102728
 06,-0.25724394,-0.02273563,0.00615010,-0.01365142,-0.00074584,0.006024
 46,-0.01479048,-0.00124958,-0.11097128,0.27402759,0.00572062,-0.009098
 46,-0.00147259,0.01012442,-0.01959361,-0.05098081,0.01134023,-0.021693
 65,-0.00199902,-0.01209561,0.02594522,0.00293877,-0.01656099,0.0235396
 7,0.05069272,-0.13392962,0.14122591,0.01701395,-0.01932289,0.03591776,
 0.00347157,0.00068020,0.00002264,-0.00084499,0.00162996,-0.00020802,0.
 00049981,-0.00712955,-0.00236744,0.00188193,0.14842941,0.15429701,-0.3
 4049300,-0.06499597,-0.00751369,0.00571795,0.00598967,0.00051083,0.000
 34171,-0.00016317,-0.00102374,0.00105124,-0.00033036,-0.00126716,0.001
 98974,0.00052436,-0.15614521,0.35110641,-0.00503453,-0.01943146,-0.022
 26980,0.01027208,-0.00746202,-0.00456931,-0.00091735,0.00040505,0.0002
 8622,-0.00040301,-0.00154510,0.00022868,0.00038271,0.00096150,0.000583
 37,-0.01881564,0.05534089,0.03265699,-0.13668028,-0.08137445,-0.119013
 44,-0.01965200,-0.01950887,-0.03011808,-0.00710808,-0.00048896,0.00302
 555,0.00164037,-0.00036241,0.00040864,0.00068499,0.00073468,-0.0004105
 9,0.00964250,0.01114196,0.01451574,0.15147251,-0.06764211,-0.12389483,
 -0.13052772,-0.00548724,-0.00273865,-0.00261968,0.00033226,0.00149743,
 0.00119135,0.00080894,-0.00036898,-0.00081306,0.00057574,0.00038559,0.
 00037647,-0.01844564,-0.01971405,-0.02826886,0.08985805,0.14483348,-0.
 14122195,-0.17581921,-0.23611733,0.01164197,0.01053243,0.00421639,0.00
 135204,0.00077378,0.00105421,0.00072426,0.00040531,0.00163849,-0.00088
 187,-0.00018838,0.00023755,-0.00320664,0.00363458,-0.00691615,0.131592
 18,0.16066150,0.23588685\\0.00006862,0.00000666,-0.00001169,0.00005031
 ,0.00001151,-0.00001951,-0.00001036,-0.00001691,-0.00001932,-0.0000131
 3,-0.00003216,0.00005323,-0.00001010,0.00002504,0.00000609,-0.00004301
 ,-0.00005185,-0.00003757,-0.00004234,0.00005770,0.00002877\\\@
 Job cpu time:       0 days  0 hours  1 minutes 23.5 seconds.
 File lengths (MBytes):  RWF=    149 Int=      0 D2E=      0 Chk=      2 Scr=      1
 Normal termination of Gaussian 09 at Sat Feb 16 13:49:32 2019.
