 Entering Gaussian System, Link 0=g09
 Initial command:
 /cm/shared/c3ddb/gaussian/09.d01/g09/l1.exe "/scratch/users/duminda/g09/a1675-7322565/Gau-6891.inp" -scrdir="/scratch/users/duminda/g09/a1675-7322565/"
 Entering Link 1 = /cm/shared/c3ddb/gaussian/09.d01/g09/l1.exe PID=      6892.
  
 Copyright (c) 1988,1990,1992,1993,1995,1998,2003,2009,2013,
            Gaussian, Inc.  All Rights Reserved.
  
 This is part of the Gaussian(R) 09 program.  It is based on
 the Gaussian(R) 03 system (copyright 2003, Gaussian, Inc.),
 the Gaussian(R) 98 system (copyright 1998, Gaussian, Inc.),
 the Gaussian(R) 94 system (copyright 1995, Gaussian, Inc.),
 the Gaussian 92(TM) system (copyright 1992, Gaussian, Inc.),
 the Gaussian 90(TM) system (copyright 1990, Gaussian, Inc.),
 the Gaussian 88(TM) system (copyright 1988, Gaussian, Inc.),
 the Gaussian 86(TM) system (copyright 1986, Carnegie Mellon
 University), and the Gaussian 82(TM) system (copyright 1983,
 Carnegie Mellon University). Gaussian is a federally registered
 trademark of Gaussian, Inc.
  
 This software contains proprietary and confidential information,
 including trade secrets, belonging to Gaussian, Inc.
  
 This software is provided under written license and may be
 used, copied, transmitted, or stored only in accord with that
 written license.
  
 The following legend is applicable only to US Government
 contracts under FAR:
  
                    RESTRICTED RIGHTS LEGEND
  
 Use, reproduction and disclosure by the US Government is
 subject to restrictions as set forth in subparagraphs (a)
 and (c) of the Commercial Computer Software - Restricted
 Rights clause in FAR 52.227-19.
  
 Gaussian, Inc.
 340 Quinnipiac St., Bldg. 40, Wallingford CT 06492
  
  
 ---------------------------------------------------------------
 Warning -- This program may not be used in any manner that
 competes with the business of Gaussian, Inc. or will provide
 assistance to any competitor of Gaussian, Inc.  The licensee
 of this program is prohibited from giving any competitor of
 Gaussian, Inc. access to this program.  By using this program,
 the user acknowledges that Gaussian, Inc. is engaged in the
 business of creating and licensing software in the field of
 computational chemistry and represents and warrants to the
 licensee that it is not a competitor of Gaussian, Inc. and that
 it will not use this program in any manner prohibited above.
 ---------------------------------------------------------------
  

 Cite this work as:
 Gaussian 09, Revision D.01,
 M. J. Frisch, G. W. Trucks, H. B. Schlegel, G. E. Scuseria, 
 M. A. Robb, J. R. Cheeseman, G. Scalmani, V. Barone, B. Mennucci, 
 G. A. Petersson, H. Nakatsuji, M. Caricato, X. Li, H. P. Hratchian, 
 A. F. Izmaylov, J. Bloino, G. Zheng, J. L. Sonnenberg, M. Hada, 
 M. Ehara, K. Toyota, R. Fukuda, J. Hasegawa, M. Ishida, T. Nakajima, 
 Y. Honda, O. Kitao, H. Nakai, T. Vreven, J. A. Montgomery, Jr., 
 J. E. Peralta, F. Ogliaro, M. Bearpark, J. J. Heyd, E. Brothers, 
 K. N. Kudin, V. N. Staroverov, T. Keith, R. Kobayashi, J. Normand, 
 K. Raghavachari, A. Rendell, J. C. Burant, S. S. Iyengar, J. Tomasi, 
 M. Cossi, N. Rega, J. M. Millam, M. Klene, J. E. Knox, J. B. Cross, 
 V. Bakken, C. Adamo, J. Jaramillo, R. Gomperts, R. E. Stratmann, 
 O. Yazyev, A. J. Austin, R. Cammi, C. Pomelli, J. W. Ochterski, 
 R. L. Martin, K. Morokuma, V. G. Zakrzewski, G. A. Voth, 
 P. Salvador, J. J. Dannenberg, S. Dapprich, A. D. Daniels, 
 O. Farkas, J. B. Foresman, J. V. Ortiz, J. Cioslowski, 
 and D. J. Fox, Gaussian, Inc., Wallingford CT, 2013.
 
 ******************************************
 Gaussian 09:  AS64L-G09RevD.01 24-Apr-2013
                16-Feb-2019 
 ******************************************
 %chk=check.chk
 %mem=1500mb
 %nproc=8
 Will use up to    8 processors via shared memory.
 ---------------------------------
 #P opt=calcfc ub97d/6-31g scf=xqc
 ---------------------------------
 1/10=4,14=-1,18=20,19=15,26=3,38=1/1,3;
 2/9=110,12=2,17=6,18=5,40=1/2;
 3/5=1,6=6,11=2,16=1,25=1,30=1,71=2,74=-42,116=2,140=1/1,2,3;
 4//1;
 5/5=2,8=3,13=1,38=5/2,8;
 8/6=4,10=90,11=11/1;
 11/6=1,8=1,9=11,15=111,16=1/1,2,10;
 10/6=1,13=1/2;
 6/7=2,8=2,9=2,10=2,28=1/1;
 7/10=1,18=20,25=1/1,2,3,16;
 1/10=4,14=-1,18=20,19=15,26=3/3(2);
 2/9=110/2;
 99//99;
 2/9=110/2;
 3/5=1,6=6,11=2,16=1,25=1,30=1,71=1,74=-42,116=2/1,2,3;
 4/5=5,16=3,69=1/1;
 5/5=2,8=3,13=1,38=5/2,8;
 7//1,2,3,16;
 1/14=-1,18=20,19=15,26=3/3(-5);
 2/9=110/2;
 6/7=2,8=2,9=2,10=2,19=2,28=1/1;
 99/9=1/99;
 Leave Link    1 at Sat Feb 16 13:46:54 2019, MaxMem=   196608000 cpu:         0.7
 (Enter /cm/shared/c3ddb/gaussian/09.d01/g09/l101.exe)
 ----
 name
 ----
 Symbolic Z-matrix:
 Charge =  0 Multiplicity = 2
 O                     1.41166  -1.00597  -0.24693 
 C                    -0.68719   0.01612   0.09148 
 C                     0.64039  -0.02857  -0.08607 
 H                    -1.26443  -0.90143   0.11185 
 H                    -1.20273   0.95881   0.21656 
 H                     1.1023    0.96103  -0.08689 
 
 NAtoms=      6 NQM=        6 NQMF=       0 NMMI=      0 NMMIF=      0
                NMic=       0 NMicF=      0.
                    Isotopes and Nuclear Properties:
 (Nuclear quadrupole moments (NQMom) in fm**2, nuclear magnetic moments (NMagM)
  in nuclear magnetons)

  Atom         1           2           3           4           5           6
 IAtWgt=          16          12          12           1           1           1
 AtmWgt=  15.9949146  12.0000000  12.0000000   1.0078250   1.0078250   1.0078250
 NucSpn=           0           0           0           1           1           1
 AtZEff=   0.0000000   0.0000000   0.0000000   0.0000000   0.0000000   0.0000000
 NQMom=    0.0000000   0.0000000   0.0000000   0.0000000   0.0000000   0.0000000
 NMagM=    0.0000000   0.0000000   0.0000000   2.7928460   2.7928460   2.7928460
 AtZNuc=   8.0000000   6.0000000   6.0000000   1.0000000   1.0000000   1.0000000
 Leave Link  101 at Sat Feb 16 13:46:54 2019, MaxMem=   196608000 cpu:         0.8
 (Enter /cm/shared/c3ddb/gaussian/09.d01/g09/l103.exe)

 GradGradGradGradGradGradGradGradGradGradGradGradGradGradGradGradGradGrad
 Berny optimization.
 Initialization pass.
                           ----------------------------
                           !    Initial Parameters    !
                           ! (Angstroms and Degrees)  !
 --------------------------                            --------------------------
 ! Name  Definition              Value          Derivative Info.                !
 --------------------------------------------------------------------------------
 ! R1    R(1,3)                  1.2554         calculate D2E/DX2 analytically  !
 ! R2    R(2,3)                  1.3402         calculate D2E/DX2 analytically  !
 ! R3    R(2,4)                  1.0842         calculate D2E/DX2 analytically  !
 ! R4    R(2,5)                  1.0817         calculate D2E/DX2 analytically  !
 ! R5    R(3,6)                  1.0921         calculate D2E/DX2 analytically  !
 ! A1    A(3,2,4)              120.1112         calculate D2E/DX2 analytically  !
 ! A2    A(3,2,5)              121.0979         calculate D2E/DX2 analytically  !
 ! A3    A(4,2,5)              118.7909         calculate D2E/DX2 analytically  !
 ! A4    A(1,3,2)              130.6579         calculate D2E/DX2 analytically  !
 ! A5    A(1,3,6)              116.458          calculate D2E/DX2 analytically  !
 ! A6    A(2,3,6)              112.8841         calculate D2E/DX2 analytically  !
 ! D1    D(4,2,3,1)              0.0            calculate D2E/DX2 analytically  !
 ! D2    D(4,2,3,6)            180.0            calculate D2E/DX2 analytically  !
 ! D3    D(5,2,3,1)           -180.0            calculate D2E/DX2 analytically  !
 ! D4    D(5,2,3,6)              0.0            calculate D2E/DX2 analytically  !
 --------------------------------------------------------------------------------
 Trust Radius=3.00D-01 FncErr=1.00D-07 GrdErr=1.00D-06
 Number of steps in this run=     25 maximum allowed number of steps=    100.
 GradGradGradGradGradGradGradGradGradGradGradGradGradGradGradGradGradGrad

 Leave Link  103 at Sat Feb 16 13:46:54 2019, MaxMem=   196608000 cpu:         0.1
 (Enter /cm/shared/c3ddb/gaussian/09.d01/g09/l202.exe)
                          Input orientation:                          
 ---------------------------------------------------------------------
 Center     Atomic      Atomic             Coordinates (Angstroms)
 Number     Number       Type             X           Y           Z
 ---------------------------------------------------------------------
      1          8           0        1.411662   -1.005967   -0.246935
      2          6           0       -0.687194    0.016117    0.091483
      3          6           0        0.640390   -0.028573   -0.086074
      4          1           0       -1.264428   -0.901426    0.111854
      5          1           0       -1.202727    0.958815    0.216557
      6          1           0        1.102297    0.961035   -0.086885
 ---------------------------------------------------------------------
                    Distance matrix (angstroms):
                    1          2          3          4          5
     1  O    0.000000
     2  C    2.358893   0.000000
     3  C    1.255403   1.340150   0.000000
     4  H    2.702058   1.084204   2.104609   0.000000
     5  H    3.303063   1.081711   2.112723   1.864206   0.000000
     6  H    1.997603   2.031492   1.092100   3.018218   2.324912
                    6
     6  H    0.000000
 Stoichiometry    C2H3O(2)
 Framework group  CS[SG(C2H3O)]
 Deg. of freedom     9
 Full point group                 CS      NOp   2
 Largest Abelian subgroup         CS      NOp   2
 Largest concise Abelian subgroup C1      NOp   1
                         Standard orientation:                         
 ---------------------------------------------------------------------
 Center     Atomic      Atomic             Coordinates (Angstroms)
 Number     Number       Type             X           Y           Z
 ---------------------------------------------------------------------
      1          8           0        1.216555   -0.142522    0.000000
      2          6           0       -1.140351   -0.239332    0.000000
      3          6           0        0.062482    0.351595    0.000000
      4          1           0       -1.214986   -1.320964    0.000000
      5          1           0       -2.050233    0.345658    0.000000
      6          1           0        0.000000    1.441906    0.000000
 ---------------------------------------------------------------------
 Rotational constants (GHZ):     79.0945156     11.2604728      9.8571386
 Leave Link  202 at Sat Feb 16 13:46:55 2019, MaxMem=   196608000 cpu:         0.6
 (Enter /cm/shared/c3ddb/gaussian/09.d01/g09/l301.exe)
 Standard basis: 6-31G (6D, 7F)
 Ernie: Thresh=  0.10000D-02 Tol=  0.10000D-05 Strict=F.
 There are    27 symmetry adapted cartesian basis functions of A'  symmetry.
 There are     6 symmetry adapted cartesian basis functions of A"  symmetry.
 There are    27 symmetry adapted basis functions of A'  symmetry.
 There are     6 symmetry adapted basis functions of A"  symmetry.
    33 basis functions,    78 primitive gaussians,    33 cartesian basis functions
    12 alpha electrons       11 beta electrons
       nuclear repulsion energy        64.2158697037 Hartrees.
 IExCor= 3630 DFT=T Ex+Corr=B97D ExCW=0 ScaHFX=  0.000000
 ScaDFX=  1.000000  1.000000  1.000000  1.000000 ScalE2=  1.000000  1.000000
 IRadAn=      0 IRanWt=     -1 IRanGd=            0 ICorTp=0 IEmpDi=121
 NAtoms=    6 NActive=    6 NUniq=    6 SFac= 1.00D+00 NAtFMM=   60 NAOKFM=F Big=F
 Integral buffers will be    131072 words long.
 Raffenetti 2 integral format.
 Two-electron integral symmetry is turned on.
 R6Disp:  Grimme-D2 Dispersion energy=       -0.0019628755 Hartrees.
 Nuclear repulsion after empirical dispersion term =       64.2139068281 Hartrees.
 Leave Link  301 at Sat Feb 16 13:46:55 2019, MaxMem=   196608000 cpu:         1.5
 (Enter /cm/shared/c3ddb/gaussian/09.d01/g09/l302.exe)
 NPDir=0 NMtPBC=     1 NCelOv=     1 NCel=       1 NClECP=     1 NCelD=      1
         NCelK=      1 NCelE2=     1 NClLst=     1 CellRange=     0.0.
 One-electron integrals computed using PRISM.
 NBasis=    33 RedAO= T EigKep=  1.02D-02  NBF=    27     6
 NBsUse=    33 1.00D-06 EigRej= -1.00D+00 NBFU=    27     6
 Precomputing XC quadrature grid using
 IXCGrd= 4 IRadAn=           0 IRanWt=          -1 IRanGd=           0 AccXCQ= 0.00D+00.
 Generated NRdTot=       0 NPtTot=           0 NUsed=           0 NTot=          32
 NSgBfM=    33    33    33    33    33 MxSgAt=     6 MxSgA2=     6.
 Leave Link  302 at Sat Feb 16 13:46:55 2019, MaxMem=   196608000 cpu:         2.7
 (Enter /cm/shared/c3ddb/gaussian/09.d01/g09/l303.exe)
 DipDrv:  MaxL=1.
 Leave Link  303 at Sat Feb 16 13:46:56 2019, MaxMem=   196608000 cpu:         0.9
 (Enter /cm/shared/c3ddb/gaussian/09.d01/g09/l401.exe)
 ExpMin= 1.61D-01 ExpMax= 5.48D+03 ExpMxC= 8.25D+02 IAcc=1 IRadAn=         1 AccDes= 0.00D+00
 Harris functional with IExCor= 3630 and IRadAn=       1 diagonalized for initial guess.
 HarFok:  IExCor= 3630 AccDes= 0.00D+00 IRadAn=         1 IDoV= 1 UseB2=F ITyADJ=14
 ICtDFT=  3500011 ScaDFX=  1.000000  1.000000  1.000000  1.000000
 FoFCou: FMM=F IPFlag=           0 FMFlag=      100000 FMFlg1=           0
         NFxFlg=           0 DoJE=T BraDBF=F KetDBF=T FulRan=T
         wScrn=  0.000000 ICntrl=     500 IOpCl=  0 I1Cent=   200000004 NGrid=           0
         NMat0=    1 NMatS0=      1 NMatT0=    0 NMatD0=    1 NMtDS0=    0 NMtDT0=    0
 Petite list used in FoFCou.
 Harris En= -153.051152390303    
 JPrj=0 DoOrth=F DoCkMO=F.
 Initial guess orbital symmetries:
 Alpha Orbitals:
       Occupied  (A') (A') (A') (A') (A') (A') (A') (A') (A') (A")
                 (A') (A")
       Virtual   (A") (A') (A') (A') (A') (A') (A") (A') (A") (A')
                 (A') (A') (A') (A') (A') (A') (A") (A') (A') (A')
                 (A')
 Beta  Orbitals:
       Occupied  (A') (A') (A') (A') (A') (A') (A') (A') (A') (A")
                 (A')
       Virtual   (A") (A") (A') (A') (A') (A') (A') (A") (A') (A")
                 (A') (A') (A') (A') (A') (A') (A') (A") (A') (A')
                 (A') (A')
 The electronic state of the initial guess is 2-A".
 Initial guess <Sx>= 0.0000 <Sy>= 0.0000 <Sz>= 0.5000 <S**2>= 0.7500 S= 0.5000
 Leave Link  401 at Sat Feb 16 13:46:57 2019, MaxMem=   196608000 cpu:         7.9
 (Enter /cm/shared/c3ddb/gaussian/09.d01/g09/l502.exe)
 UHF open shell SCF:
 Using DIIS extrapolation, IDIIS=  1040.
 Integral symmetry usage will be decided dynamically.
 Keep J ints in memory in symmetry-blocked form, NReq=1029148.
 IVT=        9750 IEndB=        9750 NGot=   196608000 MDV=   196503697
 LenX=   196503697 LenY=   196502167
 Requested convergence on RMS density matrix=1.00D-08 within  64 cycles.
 Requested convergence on MAX density matrix=1.00D-06.
 Requested convergence on             energy=1.00D-06.
 No special actions if energy rises.
 FoFCou: FMM=F IPFlag=           0 FMFlag=           0 FMFlg1=           0
         NFxFlg=           0 DoJE=F BraDBF=F KetDBF=F FulRan=T
         wScrn=  0.000000 ICntrl=     600 IOpCl=  0 I1Cent=           0 NGrid=           0
         NMat0=    1 NMatS0=    561 NMatT0=    0 NMatD0=    1 NMtDS0=    0 NMtDT0=    0
 Petite list used in FoFCou.
 Integral accuracy reduced to 1.0D-05 until final iterations.

 Cycle   1  Pass 0  IDiag  1:
 E= -152.952605149342    
 DIIS: error= 4.14D-02 at cycle   1 NSaved=   1.
 NSaved= 1 IEnMin= 1 EnMin= -152.952605149342     IErMin= 1 ErrMin= 4.14D-02
 ErrMax= 4.14D-02  0.00D+00 EMaxC= 1.00D-01 BMatC= 2.63D-01 BMatP= 2.63D-01
 IDIUse=3 WtCom= 5.86D-01 WtEn= 4.14D-01
 Coeff-Com:  0.100D+01
 Coeff-En:   0.100D+01
 Coeff:      0.100D+01
 Gap=     0.107 Goal=   None    Shift=    0.000
 Gap=     0.042 Goal=   None    Shift=    0.000
 GapD=    0.042 DampG=0.250 DampE=0.500 DampFc=0.2500 IDamp=-1.
 Damping current iteration by 2.50D-01
 RMSDP=3.94D-02 MaxDP=4.74D-01              OVMax= 3.50D-01

 Cycle   2  Pass 0  IDiag  1:
 E= -152.958273870308     Delta-E=       -0.005668720967 Rises=F Damp=T
 DIIS: error= 2.02D-02 at cycle   2 NSaved=   2.
 NSaved= 2 IEnMin= 2 EnMin= -152.958273870308     IErMin= 2 ErrMin= 2.02D-02
 ErrMax= 2.02D-02  0.00D+00 EMaxC= 1.00D-01 BMatC= 5.57D-02 BMatP= 2.63D-01
 IDIUse=3 WtCom= 7.98D-01 WtEn= 2.02D-01
 Coeff-Com:  0.843D-01 0.916D+00
 Coeff-En:   0.446D+00 0.554D+00
 Coeff:      0.157D+00 0.843D+00
 Gap=     0.179 Goal=   None    Shift=    0.000
 Gap=     0.049 Goal=   None    Shift=    0.000
 RMSDP=1.20D-02 MaxDP=9.14D-02 DE=-5.67D-03 OVMax= 4.19D-01

 Cycle   3  Pass 0  IDiag  1:
 E= -152.977470174190     Delta-E=       -0.019196303881 Rises=F Damp=F
 DIIS: error= 4.31D-02 at cycle   3 NSaved=   3.
 NSaved= 3 IEnMin= 3 EnMin= -152.977470174190     IErMin= 2 ErrMin= 2.02D-02
 ErrMax= 4.31D-02  0.00D+00 EMaxC= 1.00D-01 BMatC= 1.43D-01 BMatP= 5.57D-02
 IDIUse=2 WtCom= 0.00D+00 WtEn= 1.00D+00
 EnCoef did     2 forward-backward iterations
 Coeff-En:   0.198D-01 0.364D+00 0.617D+00
 Coeff:      0.198D-01 0.364D+00 0.617D+00
 Gap=     0.171 Goal=   None    Shift=    0.000
 Gap=     0.009 Goal=   None    Shift=    0.000
 RMSDP=2.68D-02 MaxDP=3.43D-01 DE=-1.92D-02 OVMax= 2.37D-01

 Cycle   4  Pass 0  IDiag  1:
 E= -152.781466568135     Delta-E=        0.196003606054 Rises=F Damp=F
 DIIS: error= 1.23D-01 at cycle   4 NSaved=   4.
 NSaved= 4 IEnMin= 3 EnMin= -152.977470174190     IErMin= 2 ErrMin= 2.02D-02
 ErrMax= 1.23D-01  0.00D+00 EMaxC= 1.00D-01 BMatC= 7.93D-01 BMatP= 5.57D-02
 IDIUse=2 WtCom= 0.00D+00 WtEn= 1.00D+00
 EnCoef did     3 forward-backward iterations
 Coeff-En:   0.925D-01 0.000D+00 0.680D+00 0.227D+00
 Coeff:      0.925D-01 0.000D+00 0.680D+00 0.227D+00
 Gap=     0.210 Goal=   None    Shift=    0.000
 Gap=     0.011 Goal=   None    Shift=    0.000
 RMSDP=2.61D-02 MaxDP=3.41D-01 DE= 1.96D-01 OVMax= 1.53D-01

 Cycle   5  Pass 0  IDiag  1:
 E= -153.018073892826     Delta-E=       -0.236607324691 Rises=F Damp=F
 DIIS: error= 9.40D-03 at cycle   5 NSaved=   5.
 NSaved= 5 IEnMin= 5 EnMin= -153.018073892826     IErMin= 5 ErrMin= 9.40D-03
 ErrMax= 9.40D-03  0.00D+00 EMaxC= 1.00D-01 BMatC= 1.08D-02 BMatP= 5.57D-02
 IDIUse=3 WtCom= 9.06D-01 WtEn= 9.40D-02
 Coeff-Com: -0.510D-01 0.810D-01 0.239D+00 0.892D-02 0.722D+00
 Coeff-En:   0.000D+00 0.000D+00 0.228D-01 0.000D+00 0.977D+00
 Coeff:     -0.462D-01 0.734D-01 0.219D+00 0.808D-02 0.746D+00
 Gap=     0.205 Goal=   None    Shift=    0.000
 Gap=     0.023 Goal=   None    Shift=    0.000
 RMSDP=2.37D-03 MaxDP=1.85D-02 DE=-2.37D-01 OVMax= 2.59D-02

 Cycle   6  Pass 0  IDiag  1:
 E= -153.020895018727     Delta-E=       -0.002821125901 Rises=F Damp=F
 DIIS: error= 5.52D-03 at cycle   6 NSaved=   6.
 NSaved= 6 IEnMin= 6 EnMin= -153.020895018727     IErMin= 6 ErrMin= 5.52D-03
 ErrMax= 5.52D-03  0.00D+00 EMaxC= 1.00D-01 BMatC= 1.77D-03 BMatP= 1.08D-02
 IDIUse=3 WtCom= 9.45D-01 WtEn= 5.52D-02
 Coeff-Com: -0.521D-01 0.837D-01 0.104D+00-0.497D-02 0.371D+00 0.499D+00
 Coeff-En:   0.000D+00 0.000D+00 0.000D+00 0.000D+00 0.000D+00 0.100D+01
 Coeff:     -0.493D-01 0.791D-01 0.982D-01-0.469D-02 0.350D+00 0.526D+00
 Gap=     0.202 Goal=   None    Shift=    0.000
 Gap=     0.025 Goal=   None    Shift=    0.000
 RMSDP=7.18D-04 MaxDP=8.90D-03 DE=-2.82D-03 OVMax= 1.40D-02

 Cycle   7  Pass 0  IDiag  1:
 E= -153.021334036350     Delta-E=       -0.000439017623 Rises=F Damp=F
 DIIS: error= 1.65D-03 at cycle   7 NSaved=   7.
 NSaved= 7 IEnMin= 7 EnMin= -153.021334036350     IErMin= 7 ErrMin= 1.65D-03
 ErrMax= 1.65D-03  0.00D+00 EMaxC= 1.00D-01 BMatC= 1.11D-04 BMatP= 1.77D-03
 IDIUse=3 WtCom= 9.84D-01 WtEn= 1.65D-02
 Coeff-Com: -0.182D-02-0.741D-02-0.333D-01 0.192D-03-0.658D-01 0.171D+00
 Coeff-Com:  0.937D+00
 Coeff-En:   0.000D+00 0.000D+00 0.000D+00 0.000D+00 0.000D+00 0.000D+00
 Coeff-En:   0.100D+01
 Coeff:     -0.179D-02-0.729D-02-0.328D-01 0.189D-03-0.647D-01 0.168D+00
 Coeff:      0.938D+00
 Gap=     0.203 Goal=   None    Shift=    0.000
 Gap=     0.026 Goal=   None    Shift=    0.000
 RMSDP=2.76D-04 MaxDP=4.04D-03 DE=-4.39D-04 OVMax= 6.25D-03

 Cycle   8  Pass 0  IDiag  1:
 E= -153.021387535920     Delta-E=       -0.000053499570 Rises=F Damp=F
 DIIS: error= 1.95D-04 at cycle   8 NSaved=   8.
 NSaved= 8 IEnMin= 8 EnMin= -153.021387535920     IErMin= 8 ErrMin= 1.95D-04
 ErrMax= 1.95D-04  0.00D+00 EMaxC= 1.00D-01 BMatC= 3.79D-06 BMatP= 1.11D-04
 IDIUse=3 WtCom= 9.98D-01 WtEn= 1.95D-03
 Coeff-Com:  0.503D-02-0.995D-02-0.151D-01 0.299D-03-0.459D-01-0.325D-01
 Coeff-Com:  0.114D+00 0.984D+00
 Coeff-En:   0.000D+00 0.000D+00 0.000D+00 0.000D+00 0.000D+00 0.000D+00
 Coeff-En:   0.000D+00 0.100D+01
 Coeff:      0.502D-02-0.993D-02-0.151D-01 0.298D-03-0.458D-01-0.325D-01
 Coeff:      0.114D+00 0.984D+00
 Gap=     0.203 Goal=   None    Shift=    0.000
 Gap=     0.026 Goal=   None    Shift=    0.000
 RMSDP=9.00D-05 MaxDP=1.06D-03 DE=-5.35D-05 OVMax= 2.03D-03

 Cycle   9  Pass 0  IDiag  1:
 E= -153.021389625545     Delta-E=       -0.000002089625 Rises=F Damp=F
 DIIS: error= 2.31D-04 at cycle   9 NSaved=   9.
 NSaved= 9 IEnMin= 9 EnMin= -153.021389625545     IErMin= 8 ErrMin= 1.95D-04
 ErrMax= 2.31D-04  0.00D+00 EMaxC= 1.00D-01 BMatC= 2.71D-06 BMatP= 3.79D-06
 IDIUse=3 WtCom= 9.98D-01 WtEn= 1.95D-03
 Coeff-Com:  0.241D-02-0.290D-02 0.480D-02 0.162D-03 0.710D-02-0.148D-01
 Coeff-Com: -0.634D-01 0.514D-01 0.102D+01
 Coeff-En:   0.000D+00 0.000D+00 0.000D+00 0.000D+00 0.000D+00 0.000D+00
 Coeff-En:   0.000D+00 0.000D+00 0.100D+01
 Coeff:      0.240D-02-0.290D-02 0.479D-02 0.162D-03 0.709D-02-0.147D-01
 Coeff:     -0.633D-01 0.513D-01 0.102D+01
 Gap=     0.203 Goal=   None    Shift=    0.000
 Gap=     0.026 Goal=   None    Shift=    0.000
 RMSDP=3.23D-05 MaxDP=4.31D-04 DE=-2.09D-06 OVMax= 4.71D-04

 Cycle  10  Pass 0  IDiag  1:
 E= -153.021390335921     Delta-E=       -0.000000710376 Rises=F Damp=F
 DIIS: error= 7.47D-05 at cycle  10 NSaved=  10.
 NSaved=10 IEnMin=10 EnMin= -153.021390335921     IErMin=10 ErrMin= 7.47D-05
 ErrMax= 7.47D-05  0.00D+00 EMaxC= 1.00D-01 BMatC= 3.02D-07 BMatP= 2.71D-06
 IDIUse=1 WtCom= 1.00D+00 WtEn= 0.00D+00
 Coeff-Com:  0.683D-03-0.907D-03 0.106D-02 0.921D-04 0.176D-02 0.150D-02
 Coeff-Com: -0.452D-03-0.351D-01-0.221D-01 0.105D+01
 Coeff:      0.683D-03-0.907D-03 0.106D-02 0.921D-04 0.176D-02 0.150D-02
 Coeff:     -0.452D-03-0.351D-01-0.221D-01 0.105D+01
 Gap=     0.203 Goal=   None    Shift=    0.000
 Gap=     0.026 Goal=   None    Shift=    0.000
 RMSDP=1.28D-05 MaxDP=1.54D-04 DE=-7.10D-07 OVMax= 1.93D-04

 Cycle  11  Pass 0  IDiag  1:
 E= -153.021390421471     Delta-E=       -0.000000085550 Rises=F Damp=F
 DIIS: error= 3.05D-06 at cycle  11 NSaved=  11.
 NSaved=11 IEnMin=11 EnMin= -153.021390421471     IErMin=11 ErrMin= 3.05D-06
 ErrMax= 3.05D-06  0.00D+00 EMaxC= 1.00D-01 BMatC= 1.87D-09 BMatP= 3.02D-07
 IDIUse=1 WtCom= 1.00D+00 WtEn= 0.00D+00
 Coeff-Com: -0.293D-04 0.427D-04-0.155D-03-0.268D-05-0.338D-03 0.114D-02
 Coeff-Com:  0.548D-02-0.368D-02-0.776D-01 0.181D+00 0.894D+00
 Coeff:     -0.293D-04 0.427D-04-0.155D-03-0.268D-05-0.338D-03 0.114D-02
 Coeff:      0.548D-02-0.368D-02-0.776D-01 0.181D+00 0.894D+00
 Gap=     0.203 Goal=   None    Shift=    0.000
 Gap=     0.026 Goal=   None    Shift=    0.000
 RMSDP=1.46D-06 MaxDP=1.45D-05 DE=-8.55D-08 OVMax= 1.54D-05

 Initial convergence to 1.0D-05 achieved.  Increase integral accuracy.
 Cycle  12  Pass 1  IDiag  1:
 E= -153.021404242148     Delta-E=       -0.000013820677 Rises=F Damp=F
 DIIS: error= 8.59D-06 at cycle   1 NSaved=   1.
 NSaved= 1 IEnMin= 1 EnMin= -153.021404242148     IErMin= 1 ErrMin= 8.59D-06
 ErrMax= 8.59D-06  0.00D+00 EMaxC= 1.00D-01 BMatC= 1.73D-08 BMatP= 1.73D-08
 IDIUse=1 WtCom= 1.00D+00 WtEn= 0.00D+00
 Coeff-Com:  0.100D+01
 Coeff:      0.100D+01
 Gap=     0.203 Goal=   None    Shift=    0.000
 Gap=     0.026 Goal=   None    Shift=    0.000
 RMSDP=1.46D-06 MaxDP=1.45D-05 DE=-1.38D-05 OVMax= 4.28D-05

 Cycle  13  Pass 1  IDiag  1:
 E= -153.021404248377     Delta-E=       -0.000000006230 Rises=F Damp=F
 DIIS: error= 5.19D-06 at cycle   2 NSaved=   2.
 NSaved= 2 IEnMin= 2 EnMin= -153.021404248377     IErMin= 2 ErrMin= 5.19D-06
 ErrMax= 5.19D-06  0.00D+00 EMaxC= 1.00D-01 BMatC= 3.20D-09 BMatP= 1.73D-08
 IDIUse=1 WtCom= 1.00D+00 WtEn= 0.00D+00
 Coeff-Com:  0.213D+00 0.787D+00
 Coeff:      0.213D+00 0.787D+00
 Gap=     0.203 Goal=   None    Shift=    0.000
 Gap=     0.026 Goal=   None    Shift=    0.000
 RMSDP=2.15D-06 MaxDP=2.01D-05 DE=-6.23D-09 OVMax= 3.50D-05

 Cycle  14  Pass 1  IDiag  1:
 E= -153.021404247269     Delta-E=        0.000000001108 Rises=F Damp=F
 DIIS: error= 1.01D-05 at cycle   3 NSaved=   3.
 NSaved= 3 IEnMin= 2 EnMin= -153.021404248377     IErMin= 2 ErrMin= 5.19D-06
 ErrMax= 1.01D-05  0.00D+00 EMaxC= 1.00D-01 BMatC= 7.99D-09 BMatP= 3.20D-09
 IDIUse=1 WtCom= 1.00D+00 WtEn= 0.00D+00
 Coeff-Com:  0.472D-01 0.599D+00 0.353D+00
 Coeff:      0.472D-01 0.599D+00 0.353D+00
 Gap=     0.203 Goal=   None    Shift=    0.000
 Gap=     0.026 Goal=   None    Shift=    0.000
 RMSDP=1.82D-06 MaxDP=1.75D-05 DE= 1.11D-09 OVMax= 4.06D-05

 Cycle  15  Pass 1  IDiag  1:
 E= -153.021404248877     Delta-E=       -0.000000001608 Rises=F Damp=F
 DIIS: error= 3.40D-06 at cycle   4 NSaved=   4.
 NSaved= 4 IEnMin= 4 EnMin= -153.021404248877     IErMin= 4 ErrMin= 3.40D-06
 ErrMax= 3.40D-06  0.00D+00 EMaxC= 1.00D-01 BMatC= 8.19D-10 BMatP= 3.20D-09
 IDIUse=1 WtCom= 1.00D+00 WtEn= 0.00D+00
 Coeff-Com: -0.955D-03 0.271D+00 0.273D+00 0.457D+00
 Coeff:     -0.955D-03 0.271D+00 0.273D+00 0.457D+00
 Gap=     0.203 Goal=   None    Shift=    0.000
 Gap=     0.026 Goal=   None    Shift=    0.000
 RMSDP=4.13D-07 MaxDP=3.40D-06 DE=-1.61D-09 OVMax= 8.52D-06

 Cycle  16  Pass 1  IDiag  1:
 E= -153.021404249086     Delta-E=       -0.000000000208 Rises=F Damp=F
 DIIS: error= 4.40D-07 at cycle   5 NSaved=   5.
 NSaved= 5 IEnMin= 5 EnMin= -153.021404249086     IErMin= 5 ErrMin= 4.40D-07
 ErrMax= 4.40D-07  0.00D+00 EMaxC= 1.00D-01 BMatC= 1.23D-11 BMatP= 8.19D-10
 IDIUse=1 WtCom= 1.00D+00 WtEn= 0.00D+00
 Coeff-Com: -0.453D-02 0.204D-01 0.644D-01 0.107D+00 0.812D+00
 Coeff:     -0.453D-02 0.204D-01 0.644D-01 0.107D+00 0.812D+00
 Gap=     0.203 Goal=   None    Shift=    0.000
 Gap=     0.026 Goal=   None    Shift=    0.000
 RMSDP=1.20D-07 MaxDP=1.10D-06 DE=-2.08D-10 OVMax= 1.87D-06

 Cycle  17  Pass 1  IDiag  1:
 E= -153.021404249090     Delta-E=       -0.000000000004 Rises=F Damp=F
 DIIS: error= 1.31D-07 at cycle   6 NSaved=   6.
 NSaved= 6 IEnMin= 6 EnMin= -153.021404249090     IErMin= 6 ErrMin= 1.31D-07
 ErrMax= 1.31D-07  0.00D+00 EMaxC= 1.00D-01 BMatC= 1.01D-12 BMatP= 1.23D-11
 IDIUse=1 WtCom= 1.00D+00 WtEn= 0.00D+00
 Coeff-Com: -0.649D-03-0.232D-01-0.233D-01-0.263D-01 0.106D+00 0.968D+00
 Coeff:     -0.649D-03-0.232D-01-0.233D-01-0.263D-01 0.106D+00 0.968D+00
 Gap=     0.203 Goal=   None    Shift=    0.000
 Gap=     0.026 Goal=   None    Shift=    0.000
 RMSDP=3.03D-08 MaxDP=2.82D-07 DE=-4.26D-12 OVMax= 9.05D-07

 Cycle  18  Pass 1  IDiag  1:
 E= -153.021404249090     Delta-E=        0.000000000000 Rises=F Damp=F
 DIIS: error= 8.62D-08 at cycle   7 NSaved=   7.
 NSaved= 7 IEnMin= 7 EnMin= -153.021404249090     IErMin= 7 ErrMin= 8.62D-08
 ErrMax= 8.62D-08  0.00D+00 EMaxC= 1.00D-01 BMatC= 6.23D-13 BMatP= 1.01D-12
 IDIUse=1 WtCom= 1.00D+00 WtEn= 0.00D+00
 Coeff-Com:  0.377D-03-0.169D-01-0.241D-01-0.330D-01-0.549D-01 0.629D+00
 Coeff-Com:  0.499D+00
 Coeff:      0.377D-03-0.169D-01-0.241D-01-0.330D-01-0.549D-01 0.629D+00
 Coeff:      0.499D+00
 Gap=     0.203 Goal=   None    Shift=    0.000
 Gap=     0.026 Goal=   None    Shift=    0.000
 RMSDP=1.26D-08 MaxDP=2.09D-07 DE=-3.41D-13 OVMax= 2.87D-07

 Cycle  19  Pass 1  IDiag  1:
 E= -153.021404249090     Delta-E=        0.000000000000 Rises=F Damp=F
 DIIS: error= 7.87D-09 at cycle   8 NSaved=   8.
 NSaved= 8 IEnMin= 8 EnMin= -153.021404249090     IErMin= 8 ErrMin= 7.87D-09
 ErrMax= 7.87D-09  0.00D+00 EMaxC= 1.00D-01 BMatC= 5.88D-15 BMatP= 6.23D-13
 IDIUse=1 WtCom= 1.00D+00 WtEn= 0.00D+00
 Coeff-Com:  0.354D-04 0.700D-03 0.101D-02-0.541D-03-0.551D-02-0.295D-01
 Coeff-Com:  0.151D-01 0.102D+01
 Coeff:      0.354D-04 0.700D-03 0.101D-02-0.541D-03-0.551D-02-0.295D-01
 Coeff:      0.151D-01 0.102D+01
 Gap=     0.203 Goal=   None    Shift=    0.000
 Gap=     0.026 Goal=   None    Shift=    0.000
 RMSDP=1.54D-09 MaxDP=1.66D-08 DE=-2.27D-13 OVMax= 2.44D-08

 SCF Done:  E(UB97D) =  -153.021404249     A.U. after   19 cycles
            NFock= 19  Conv=0.15D-08     -V/T= 2.0027
 <Sx>= 0.0000 <Sy>= 0.0000 <Sz>= 0.5000 <S**2>= 0.7625 S= 0.5062
 <L.S>= 0.000000000000E+00
 KE= 1.526083081499D+02 PE=-4.869414381833D+02 EE= 1.170978189562D+02
 Annihilation of the first spin contaminant:
 S**2 before annihilation     0.7625,   after     0.7501
 Leave Link  502 at Sat Feb 16 13:47:08 2019, MaxMem=   196608000 cpu:        64.6
 (Enter /cm/shared/c3ddb/gaussian/09.d01/g09/l508.exe)
 QCSCF skips out because SCF is already converged.
 Leave Link  508 at Sat Feb 16 13:47:08 2019, MaxMem=   196608000 cpu:         0.0
 (Enter /cm/shared/c3ddb/gaussian/09.d01/g09/l801.exe)
 DoSCS=F DFT=T ScalE2(SS,OS)=  1.000000  1.000000
 Range of M.O.s used for correlation:     1    33
 NBasis=    33 NAE=    12 NBE=    11 NFC=     0 NFV=     0
 NROrb=     33 NOA=    12 NOB=    11 NVA=    21 NVB=    22

 **** Warning!!: The smallest beta delta epsilon is  0.25798914D-01

 Leave Link  801 at Sat Feb 16 13:47:08 2019, MaxMem=   196608000 cpu:         0.2
 (Enter /cm/shared/c3ddb/gaussian/09.d01/g09/l1101.exe)
 Using compressed storage, NAtomX=     6.
 Will process      7 centers per pass.
 R6Disp: Adding Grimme-D2 dispersion energy 1st derivatives to the gradient.
 Leave Link 1101 at Sat Feb 16 13:47:09 2019, MaxMem=   196608000 cpu:         3.4
 (Enter /cm/shared/c3ddb/gaussian/09.d01/g09/l1102.exe)
 Symmetrizing basis deriv contribution to polar:
 IMax=3 JMax=2 DiffMx= 0.00D+00
 Leave Link 1102 at Sat Feb 16 13:47:09 2019, MaxMem=   196608000 cpu:         0.7
 (Enter /cm/shared/c3ddb/gaussian/09.d01/g09/l1110.exe)
 Forming Gx(P) for the SCF density, NAtomX=     6.
 Integral derivatives from FoFJK, PRISM(SPDF).
 Do as many integral derivatives as possible in FoFJK.
 G2DrvN: MDV=     196607848.
 G2DrvN: will do     7 centers at a time, making    1 passes.
 Calling FoFCou, ICntrl=  3507 FMM=F I1Cent=   0 AccDes= 0.00D+00.
 FoFJK:  IHMeth= 1 ICntrl=    3507 DoSepK=F KAlg= 0 I1Cent=   0 FoldK=F
 IRaf=         0 NMat=   1 IRICut=       1 DoRegI=T DoRafI=F ISym2E= 1.
 FoFCou: FMM=F IPFlag=           0 FMFlag=      100000 FMFlg1=           0
         NFxFlg=           0 DoJE=F BraDBF=F KetDBF=F FulRan=T
         wScrn=  0.000000 ICntrl=    3507 IOpCl=  0 I1Cent=           0 NGrid=           0
         NMat0=    1 NMatS0=      1 NMatT0=    0 NMatD0=    1 NMtDS0=    0 NMtDT0=    0
 Petite list used in FoFCou.
 End of G2Drv F.D. properties file   721 does not exist.
 End of G2Drv F.D. properties file   722 does not exist.
 End of G2Drv F.D. properties file   788 does not exist.
 Leave Link 1110 at Sat Feb 16 13:47:11 2019, MaxMem=   196608000 cpu:         8.9
 (Enter /cm/shared/c3ddb/gaussian/09.d01/g09/l1002.exe)
 Minotr:  UHF open shell wavefunction.
          IDoAtm=111111
          Direct CPHF calculation.
          Differentiating once with respect to nuclear coordinates.
          Using symmetry in CPHF.
          Requested convergence is 1.0D-08 RMS, and 1.0D-07 maximum.
          Secondary convergence is 1.0D-12 RMS, and 1.0D-12 maximum.
          NewPWx=T KeepS1=F KeepF1=F KeepIn=T MapXYZ=F SortEE=F KeepMc=T.
          MDV=     196607870 using IRadAn=       2.
 Generate precomputed XC quadrature information.
 Keep J ints in memory in symmetry-blocked form, NReq=1019690.
 FoFCou: FMM=F IPFlag=           0 FMFlag=           0 FMFlg1=           0
         NFxFlg=           0 DoJE=F BraDBF=F KetDBF=F FulRan=T
         wScrn=  0.000000 ICntrl=     600 IOpCl=  0 I1Cent=           0 NGrid=           0
         NMat0=    1 NMatS0=    561 NMatT0=    0 NMatD0=    1 NMtDS0=    0 NMtDT0=    0
 Petite list used in FoFCou.
          Solving linear equations simultaneously, MaxMat=       0.
          There are    21 degrees of freedom in the 1st order CPHF.  IDoFFX=6 NUNeed=     0.
     15 vectors produced by pass  0 Test12= 2.35D-15 4.76D-09 XBig12= 3.87D-01 4.47D-01.
 AX will form    15 AO Fock derivatives at one time.
     15 vectors produced by pass  1 Test12= 2.35D-15 4.76D-09 XBig12= 3.43D-01 3.24D-01.
     15 vectors produced by pass  2 Test12= 2.35D-15 4.76D-09 XBig12= 4.03D-03 1.55D-02.
     15 vectors produced by pass  3 Test12= 2.35D-15 4.76D-09 XBig12= 2.80D-05 1.01D-03.
     15 vectors produced by pass  4 Test12= 2.35D-15 4.76D-09 XBig12= 5.97D-08 5.62D-05.
     13 vectors produced by pass  5 Test12= 2.35D-15 4.76D-09 XBig12= 1.51D-10 2.95D-06.
      4 vectors produced by pass  6 Test12= 2.35D-15 4.76D-09 XBig12= 2.44D-13 1.21D-07.
      1 vectors produced by pass  7 Test12= 2.35D-15 4.76D-09 XBig12= 8.93D-16 7.30D-09.
 InvSVY:  IOpt=1 It=  1 EMax= 1.33D-15
 Solved reduced A of dimension    93 with    15 vectors.
 End of Minotr F.D. properties file   721 does not exist.
 End of Minotr F.D. properties file   722 does not exist.
 End of Minotr F.D. properties file   788 does not exist.
 Leave Link 1002 at Sat Feb 16 13:47:17 2019, MaxMem=   196608000 cpu:        36.3
 (Enter /cm/shared/c3ddb/gaussian/09.d01/g09/l601.exe)
 Copying SCF densities to generalized density rwf, IOpCl= 1 IROHF=0.

 **********************************************************************

            Population analysis using the SCF density.

 **********************************************************************

 Orbital symmetries:
 Alpha Orbitals:
       Occupied  (A') (A') (A') (A') (A') (A') (A') (A') (A") (A')
                 (A") (A')
       Virtual   (A") (A') (A') (A') (A') (A') (A") (A') (A") (A')
                 (A') (A') (A') (A') (A') (A') (A") (A') (A') (A')
                 (A')
 Beta  Orbitals:
       Occupied  (A') (A') (A') (A') (A') (A') (A') (A') (A') (A")
                 (A')
       Virtual   (A") (A") (A') (A') (A') (A') (A') (A") (A') (A")
                 (A') (A') (A') (A') (A') (A') (A') (A") (A') (A')
                 (A') (A')
 The electronic state is 2-A".
 Alpha  occ. eigenvalues --  -18.77878  -9.98356  -9.95207  -0.97380  -0.72578
 Alpha  occ. eigenvalues --   -0.52897  -0.46110  -0.40534  -0.37339  -0.35797
 Alpha  occ. eigenvalues --   -0.23980  -0.21745
 Alpha virt. eigenvalues --   -0.01409   0.08005   0.10235   0.15130   0.24256
 Alpha virt. eigenvalues --    0.29560   0.47441   0.49785   0.56583   0.60419
 Alpha virt. eigenvalues --    0.60741   0.65622   0.78133   0.83517   0.87046
 Alpha virt. eigenvalues --    0.88587   0.91761   1.02100   1.07641   1.18090
 Alpha virt. eigenvalues --    1.71335
  Beta  occ. eigenvalues --  -18.77235  -9.98426  -9.94916  -0.95416  -0.70113
  Beta  occ. eigenvalues --   -0.51939  -0.45195  -0.39341  -0.34748  -0.34379
  Beta  occ. eigenvalues --   -0.20279
  Beta virt. eigenvalues --   -0.17699   0.01279   0.08713   0.11096   0.15553
  Beta virt. eigenvalues --    0.24659   0.29957   0.48751   0.50391   0.57469
  Beta virt. eigenvalues --    0.60562   0.60904   0.66223   0.79032   0.83570
  Beta virt. eigenvalues --    0.88315   0.89369   0.95090   1.02924   1.08277
  Beta virt. eigenvalues --    1.18216   1.73003
          Condensed to atoms (all electrons):
               1          2          3          4          5          6
     1  O    8.074198  -0.087279   0.445193   0.002523   0.003276  -0.076439
     2  C   -0.087279   5.530726   0.282001   0.330691   0.329150  -0.157263
     3  C    0.445193   0.282001   4.787157  -0.021612  -0.006650   0.363385
     4  H    0.002523   0.330691  -0.021612   0.537715  -0.028240   0.008555
     5  H    0.003276   0.329150  -0.006650  -0.028240   0.534974   0.001389
     6  H   -0.076439  -0.157263   0.363385   0.008555   0.001389   0.757866
          Atomic-Atomic Spin Densities.
               1          2          3          4          5          6
     1  O    0.511209  -0.017225  -0.041245   0.000252  -0.000134   0.001283
     2  C   -0.017225   0.794464   0.009910  -0.005762  -0.002128  -0.000036
     3  C   -0.041245   0.009910  -0.125029  -0.000740  -0.002286   0.008850
     4  H    0.000252  -0.005762  -0.000740  -0.037107   0.002137  -0.000170
     5  H   -0.000134  -0.002128  -0.002286   0.002137  -0.039506   0.000088
     6  H    0.001283  -0.000036   0.008850  -0.000170   0.000088  -0.009620
 Mulliken charges and spin densities:
               1          2
     1  O   -0.361472   0.454140
     2  C   -0.228026   0.779223
     3  C    0.150525  -0.150541
     4  H    0.170367  -0.041389
     5  H    0.166100  -0.041830
     6  H    0.102507   0.000397
 Sum of Mulliken charges =   0.00000   1.00000
 Mulliken charges and spin densities with hydrogens summed into heavy atoms:
               1          2
     1  O   -0.361472   0.454140
     2  C    0.108441   0.696004
     3  C    0.253031  -0.150144
 APT charges:
               1
     1  O   -0.221187
     2  C   -0.561540
     3  C   -0.361932
     4  H    0.371570
     5  H    0.475134
     6  H    0.297955
 Sum of APT charges =   0.00000
 APT charges with hydrogens summed into heavy atoms:
               1
     1  O   -0.221187
     2  C    0.285163
     3  C   -0.063977
 Electronic spatial extent (au):  <R**2>=            148.7951
 Charge=              0.0000 electrons
 Dipole moment (field-independent basis, Debye):
    X=             -3.0259    Y=              0.4155    Z=              0.0000  Tot=              3.0543
 Quadrupole moment (field-independent basis, Debye-Ang):
   XX=            -18.9304   YY=            -16.7467   ZZ=            -17.7824
   XY=              0.6455   XZ=              0.0000   YZ=              0.0000
 Traceless Quadrupole moment (field-independent basis, Debye-Ang):
   XX=             -1.1106   YY=              1.0731   ZZ=              0.0374
   XY=              0.6455   XZ=              0.0000   YZ=              0.0000
 Octapole moment (field-independent basis, Debye-Ang**2):
  XXX=             -4.2179  YYY=             -1.5136  ZZZ=              0.0000  XYY=             -0.0370
  XXY=              0.6754  XXZ=              0.0000  XZZ=              2.3522  YZZ=             -0.2245
  YYZ=              0.0000  XYZ=              0.0000
 Hexadecapole moment (field-independent basis, Debye-Ang**3):
 XXXX=           -125.2121 YYYY=            -37.5185 ZZZZ=            -15.7369 XXXY=             -5.6535
 XXXZ=              0.0000 YYYX=             -1.7896 YYYZ=              0.0000 ZZZX=              0.0000
 ZZZY=              0.0000 XXYY=            -26.9331 XXZZ=            -24.2070 YYZZ=             -9.5527
 XXYZ=              0.0000 YYXZ=              0.0000 ZZXY=             -1.4211
 N-N= 6.421390682814D+01 E-N=-4.869414382374D+02  KE= 1.526083081499D+02
 Symmetry A'   KE= 1.477428766746D+02
 Symmetry A"   KE= 4.865431475234D+00
  Exact polarizability:   0.000   0.000   0.000   0.000   0.000   0.000
 Approx polarizability:  73.529  -3.572  32.818   0.000   0.000  12.340
                          Isotropic Fermi Contact Couplings
        Atom                 a.u.       MegaHertz       Gauss      10(-4) cm-1
     1  O(17)              0.08393     -50.87885     -18.15484     -16.97136
     2  C(13)              0.10934     122.92412      43.86238      41.00307
     3  C(13)             -0.04540     -51.03394     -18.21018     -17.02309
     4  H(1)              -0.01259     -56.25828     -20.07435     -18.76574
     5  H(1)              -0.01299     -58.08055     -20.72458     -19.37359
     6  H(1)               0.00002       0.09654       0.03445       0.03220
 --------------------------------------------------------
       Center         ----  Spin Dipole Couplings  ----
                      3XX-RR        3YY-RR        3ZZ-RR
 --------------------------------------------------------
     1   Atom       -0.807117     -0.814311      1.621428
     2   Atom       -0.372686     -0.371542      0.744227
     3   Atom        0.083464      0.012665     -0.096129
     4   Atom       -0.047217      0.059524     -0.012307
     5   Atom        0.031087     -0.019889     -0.011198
     6   Atom        0.005509      0.005395     -0.010904
 --------------------------------------------------------
                        XY            XZ            YZ
 --------------------------------------------------------
     1   Atom       -0.003749      0.000000      0.000000
     2   Atom       -0.005728      0.000000      0.000000
     3   Atom       -0.003022      0.000000      0.000000
     4   Atom        0.010119      0.000000      0.000000
     5   Atom       -0.052322      0.000000      0.000000
     6   Atom        0.005795      0.000000      0.000000
 --------------------------------------------------------


 ---------------------------------------------------------------------------------
              Anisotropic Spin Dipole Couplings in Principal Axis System
 ---------------------------------------------------------------------------------

       Atom             a.u.   MegaHertz   Gauss  10(-4) cm-1        Axes

              Baa    -0.8159    59.039    21.066    19.693  0.3922  0.9199  0.0000
     1 O(17)  Bbb    -0.8055    58.287    20.798    19.442  0.9199 -0.3922  0.0000
              Bcc     1.6214  -117.325   -41.865   -39.136  0.0000  0.0000  1.0000
 
              Baa    -0.3779   -50.707   -18.093   -16.914  0.7414  0.6711  0.0000
     2 C(13)  Bbb    -0.3664   -49.162   -17.542   -16.399 -0.6711  0.7414  0.0000
              Bcc     0.7442    99.868    35.635    33.312  0.0000  0.0000  1.0000
 
              Baa    -0.0961   -12.900    -4.603    -4.303  0.0000  0.0000  1.0000
     3 C(13)  Bbb     0.0125     1.682     0.600     0.561  0.0426  0.9991  0.0000
              Bcc     0.0836    11.217     4.003     3.742  0.9991 -0.0426  0.0000
 
              Baa    -0.0482   -25.700    -9.170    -8.573  0.9956 -0.0935  0.0000
     4 H(1)   Bbb    -0.0123    -6.566    -2.343    -2.190  0.0000  0.0000  1.0000
              Bcc     0.0605    32.266    11.513    10.763  0.0935  0.9956  0.0000
 
              Baa    -0.0526   -28.065   -10.014    -9.362  0.5301  0.8479  0.0000
     5 H(1)   Bbb    -0.0112    -5.975    -2.132    -1.993  0.0000  0.0000  1.0000
              Bcc     0.0638    34.040    12.146    11.355  0.8479 -0.5301  0.0000
 
              Baa    -0.0109    -5.818    -2.076    -1.941  0.0000  0.0000  1.0000
     6 H(1)   Bbb    -0.0003    -0.183    -0.065    -0.061 -0.7036  0.7106  0.0000
              Bcc     0.0112     6.001     2.141     2.002  0.7106  0.7036  0.0000
 

 ---------------------------------------------------------------------------------

 No NMR shielding tensors so no spin-rotation constants.
 Leave Link  601 at Sat Feb 16 13:47:18 2019, MaxMem=   196608000 cpu:         7.0
 (Enter /cm/shared/c3ddb/gaussian/09.d01/g09/l701.exe)
 Compute integral second derivatives.
 ... and contract with generalized density number  0.
 R6Disp: Adding Grimme-D2 dispersion energy 2nd derivatives to the Hessian.
 Leave Link  701 at Sat Feb 16 13:47:19 2019, MaxMem=   196608000 cpu:         2.7
 (Enter /cm/shared/c3ddb/gaussian/09.d01/g09/l702.exe)
 L702 exits ... SP integral derivatives will be done elsewhere.
 Leave Link  702 at Sat Feb 16 13:47:19 2019, MaxMem=   196608000 cpu:         0.1
 (Enter /cm/shared/c3ddb/gaussian/09.d01/g09/l703.exe)
 Compute integral second derivatives, UseDBF=F ICtDFT=           0.
 Integral derivatives from FoFJK, PRISM(SPDF).
 Calling FoFJK, ICntrl=    100547 FMM=F ISym2X=1 I1Cent= 0 IOpClX= 0 NMat=1 NMatS=1 NMatT=0.
 FoFJK:  IHMeth= 1 ICntrl=  100547 DoSepK=F KAlg= 0 I1Cent=   0 FoldK=F
 IRaf=         0 NMat=   1 IRICut=       1 DoRegI=T DoRafI=F ISym2E= 1.
 FoFCou: FMM=F IPFlag=           0 FMFlag=      100000 FMFlg1=         800
         NFxFlg=           0 DoJE=F BraDBF=F KetDBF=F FulRan=T
         wScrn=  0.000000 ICntrl=  100547 IOpCl=  0 I1Cent=           0 NGrid=           0
         NMat0=    1 NMatS0=      1 NMatT0=    0 NMatD0=    1 NMtDS0=    0 NMtDT0=    0
 Petite list used in FoFCou.
 Leave Link  703 at Sat Feb 16 13:47:20 2019, MaxMem=   196608000 cpu:         8.4
 (Enter /cm/shared/c3ddb/gaussian/09.d01/g09/l716.exe)
 Dipole        =-1.19048763D+00 1.63462666D-01-6.62934424D-17
 Polarizability= 0.00000000D+00 0.00000000D+00 0.00000000D+00
                 0.00000000D+00 0.00000000D+00 0.00000000D+00
 ***** Axes restored to original set *****
 -------------------------------------------------------------------
 Center     Atomic                   Forces (Hartrees/Bohr)
 Number     Number              X              Y              Z
 -------------------------------------------------------------------
      1        8           0.012639351   -0.041097789   -0.004157357
      2        6          -0.068077444   -0.015936669    0.007999355
      3        6           0.056077968    0.043131551   -0.004769530
      4        1          -0.005908736   -0.004105952    0.000529155
      5        1          -0.002714211    0.004613683    0.000637304
      6        1           0.007983072    0.013395175   -0.000238927
 -------------------------------------------------------------------
 Cartesian Forces:  Max     0.068077444 RMS     0.026002902
 Force constants in Cartesian coordinates: 
                1             2             3             4             5 
      1  0.264550D+00
      2 -0.277203D+00  0.422881D+00
      3 -0.513143D-01  0.620005D-01  0.131075D-01
      4 -0.713800D-01  0.731317D-01  0.159304D-01  0.815133D+00
      5  0.518782D-01 -0.144990D-03 -0.780553D-02 -0.299891D-02  0.643621D+00
      6  0.146413D-01 -0.106047D-01  0.133262D-01 -0.990505D-01  0.355245D-01
      7 -0.207684D+00  0.170177D+00  0.335397D-01 -0.462413D+00 -0.467893D-02
      8  0.215810D+00 -0.374254D+00 -0.492184D-01 -0.673709D-01 -0.910978D-01
      9  0.363075D-01 -0.432084D-01 -0.387965D-01  0.506943D-01 -0.209052D-02
     10  0.451484D-02  0.326783D-02 -0.115834D-02 -0.138861D+00 -0.125214D+00
     11 -0.107801D-02  0.212535D-02  0.621779D-03 -0.132010D+00 -0.263710D+00
     12 -0.142193D-02  0.494211D-04 -0.559494D-02  0.643233D-02  0.226873D-02
     13 -0.522875D-02 -0.160938D-02  0.100481D-02 -0.122213D+00  0.117978D+00
     14  0.716563D-03  0.166302D-02 -0.184067D-03  0.127278D+00 -0.286346D+00
     15  0.114589D-02  0.122265D-03  0.299831D-02  0.206280D-01 -0.314378D-01
     16  0.152286D-01  0.322360D-01  0.199769D-02 -0.202653D-01 -0.369643D-01
     17  0.987632D-02 -0.522704D-01 -0.541434D-02  0.196926D-02 -0.232242D-02
     18  0.641498D-03 -0.835917D-02  0.149595D-01  0.536550D-02  0.354060D-02
                6             7             8             9            10 
      6  0.796362D-01
      7  0.544968D-01  0.804038D+00
      8  0.616617D-02 -0.448151D-01  0.690724D+00
      9 -0.532747D-01 -0.951527D-01  0.415986D-01  0.117249D+00
     10  0.684452D-02 -0.121010D-01 -0.372419D-01  0.126045D-02  0.141835D+00
     11  0.316375D-02  0.386813D-02  0.157749D-03 -0.138666D-02  0.144535D+00
     12 -0.299360D-01  0.375391D-02  0.402764D-02  0.143704D-01 -0.833924D-02
     13  0.200638D-01 -0.646503D-02  0.322479D-01  0.402941D-02  0.100433D-01
     14 -0.326627D-01 -0.978501D-02  0.202459D-02  0.848733D-03  0.140030D-01
     15 -0.288271D-01  0.147997D-02 -0.468711D-02  0.879934D-02  0.227356D-03
     16  0.300404D-02 -0.115375D+00 -0.986304D-01  0.286107D-02 -0.543052D-02
     17 -0.158704D-02 -0.114766D+00 -0.227555D+00  0.423823D-02  0.650298D-03
     18  0.190754D-01  0.188237D-02  0.211308D-02 -0.483480D-01  0.116525D-02
               11            12            13            14            15 
     11  0.271568D+00
     12 -0.328900D-02  0.128516D-01
     13 -0.154181D-01 -0.155714D-02  0.123423D+00
     14 -0.117345D-01 -0.287869D-02 -0.132609D+00  0.293337D+00
     15  0.996148D-03  0.535120D-02 -0.228147D-01  0.345736D-01  0.163661D-01
     16  0.102979D-03  0.113206D-02  0.440963D-03  0.396052D-03 -0.666476D-03
     17  0.159337D-02 -0.178097D-03 -0.589118D-03  0.105589D-02  0.432884D-03
     18 -0.106013D-03  0.295772D-02 -0.726230D-03  0.303134D-03 -0.468786D-02
               16            17            18 
     16  0.125401D+00
     17  0.102860D+00  0.279498D+00
     18 -0.832839D-02  0.250836D-02  0.160432D-01
 FormGI is forming the generalized inverse of G from B-inverse, IUseBI=4.
 Force constants in internal coordinates: 
                1             2             3             4             5 
      1  0.642023D+00
      2  0.106620D+00  0.588374D+00
      3  0.182868D-02  0.397855D-02  0.365202D+00
      4  0.297154D-03 -0.153897D-02 -0.163609D-02  0.370676D+00
      5  0.362312D-01  0.828732D-02 -0.351290D-03  0.115926D-02  0.330778D+00
      6 -0.372283D-02  0.552943D-02  0.933252D-02 -0.109630D-01  0.324951D-02
      7  0.414453D-02  0.130434D-01 -0.127811D-01  0.582710D-02 -0.186284D-02
      8 -0.421699D-03 -0.185728D-01  0.344855D-02  0.513593D-02 -0.138667D-02
      9  0.150769D-01  0.343936D-02 -0.770454D-02  0.658663D-02 -0.183170D-01
     10  0.285026D-01 -0.256119D-01  0.413462D-03 -0.279146D-02  0.264464D-02
     11 -0.435796D-01  0.221726D-01  0.729108D-02 -0.379517D-02  0.156724D-01
     12  0.000000D+00  0.000000D+00  0.000000D+00  0.000000D+00  0.000000D+00
     13  0.000000D+00  0.000000D+00  0.000000D+00  0.000000D+00  0.000000D+00
     14  0.000000D+00  0.000000D+00  0.000000D+00  0.000000D+00  0.000000D+00
     15  0.000000D+00  0.000000D+00  0.000000D+00  0.000000D+00  0.000000D+00
                6             7             8             9            10 
      6  0.786355D-01
      7 -0.438460D-01  0.804178D-01
      8 -0.347894D-01 -0.365717D-01  0.713611D-01
      9 -0.181030D-01  0.155123D-01  0.259062D-02  0.135072D+00
     10  0.266989D-02 -0.393667D-02  0.126678D-02 -0.735154D-01  0.128000D+00
     11  0.154331D-01 -0.115757D-01 -0.385740D-02 -0.615562D-01 -0.544848D-01
     12  0.000000D+00  0.000000D+00  0.000000D+00  0.000000D+00  0.000000D+00
     13  0.000000D+00  0.000000D+00  0.000000D+00  0.000000D+00  0.000000D+00
     14  0.000000D+00  0.000000D+00  0.000000D+00  0.000000D+00  0.000000D+00
     15  0.000000D+00  0.000000D+00  0.000000D+00  0.000000D+00  0.000000D+00
               11            12            13            14            15 
     11  0.116041D+00
     12  0.000000D+00  0.283219D-01
     13  0.000000D+00 -0.275979D-02  0.242879D-01
     14  0.000000D+00  0.102282D-01 -0.173306D-01  0.240611D-01
     15  0.000000D+00 -0.208535D-01  0.971704D-02 -0.349776D-02  0.270727D-01
 Leave Link  716 at Sat Feb 16 13:47:21 2019, MaxMem=   196608000 cpu:         0.6
 (Enter /cm/shared/c3ddb/gaussian/09.d01/g09/l103.exe)

 GradGradGradGradGradGradGradGradGradGradGradGradGradGradGradGradGradGrad
 Berny optimization.
 Red2BG is reusing G-inverse.
 Internal  Forces:  Max     0.076681011 RMS     0.024269879
 Search for a local minimum.
 Step number   1 out of a maximum of   25
 All quantities printed in internal units (Hartrees-Bohrs-Radians)
 RMS Force = .24270D-01 SwitMx=.10000D-02 MixMth= 1
 Mixed Optimization -- RFO/linear search
 Second derivative matrix not updated -- analytic derivatives used.
 The second derivative matrix:
                          R1        R2        R3        R4        R5
           R1           0.64202
           R2           0.10662   0.58837
           R3           0.00183   0.00398   0.36520
           R4           0.00030  -0.00154  -0.00164   0.37068
           R5           0.03623   0.00829  -0.00035   0.00116   0.33078
           A1          -0.00372   0.00553   0.00933  -0.01096   0.00325
           A2           0.00414   0.01304  -0.01278   0.00583  -0.00186
           A3          -0.00042  -0.01857   0.00345   0.00514  -0.00139
           A4           0.01508   0.00344  -0.00770   0.00659  -0.01832
           A5           0.02850  -0.02561   0.00041  -0.00279   0.00264
           A6          -0.04358   0.02217   0.00729  -0.00380   0.01567
           D1           0.00000   0.00000   0.00000   0.00000   0.00000
           D2           0.00000   0.00000   0.00000   0.00000   0.00000
           D3           0.00000   0.00000   0.00000   0.00000   0.00000
           D4           0.00000   0.00000   0.00000   0.00000   0.00000
                          A1        A2        A3        A4        A5
           A1           0.07864
           A2          -0.04385   0.08042
           A3          -0.03479  -0.03657   0.07136
           A4          -0.01810   0.01551   0.00259   0.13507
           A5           0.00267  -0.00394   0.00127  -0.07352   0.12800
           A6           0.01543  -0.01158  -0.00386  -0.06156  -0.05448
           D1           0.00000   0.00000   0.00000   0.00000   0.00000
           D2           0.00000   0.00000   0.00000   0.00000   0.00000
           D3           0.00000   0.00000   0.00000   0.00000   0.00000
           D4           0.00000   0.00000   0.00000   0.00000   0.00000
                          A6        D1        D2        D3        D4
           A6           0.11604
           D1           0.00000   0.02832
           D2           0.00000  -0.00276   0.02429
           D3           0.00000   0.01023  -0.01733   0.02406
           D4           0.00000  -0.02085   0.00972  -0.00350   0.02707
 ITU=  0
     Eigenvalues ---    0.01365   0.03149   0.05860   0.10401   0.11127
     Eigenvalues ---    0.16528   0.20789   0.33249   0.36577   0.37327
     Eigenvalues ---    0.51705   0.72955
 RFO step:  Lambda=-1.62225415D-02 EMin= 1.36548208D-02
 Linear search not attempted -- first point.
 Iteration  1 RMS(Cart)=  0.06666561 RMS(Int)=  0.00262206
 Iteration  2 RMS(Cart)=  0.00304031 RMS(Int)=  0.00000393
 Iteration  3 RMS(Cart)=  0.00000449 RMS(Int)=  0.00000001
 Iteration  4 RMS(Cart)=  0.00000001 RMS(Int)=  0.00000000
 ITry= 1 IFail=0 DXMaxC= 1.48D-01 DCOld= 1.00D+10 DXMaxT= 3.00D-01 DXLimC= 3.00D+00 Rises=F
 ClnCor:  largest displacement from symmetrization is 7.97D-09 for atom     3.
 Variable       Old X    -DE/DX   Delta X   Delta X   Delta X     New X
                                 (Linear)    (Quad)   (Total)
    R1        2.37237   0.04029   0.00000   0.04526   0.04526   2.41763
    R2        2.53252   0.07668   0.00000   0.11917   0.11917   2.65169
    R3        2.04885   0.00663   0.00000   0.01211   0.01211   2.06096
    R4        2.04414   0.00539   0.00000   0.01739   0.01739   2.06153
    R5        2.06377   0.01552   0.00000   0.02731   0.02731   2.09108
    A1        2.09634   0.00377   0.00000  -0.00099  -0.00099   2.09534
    A2        2.11356  -0.00171   0.00000  -0.00373  -0.00373   2.10982
    A3        2.07329  -0.00206   0.00000   0.00473   0.00473   2.07802
    A4        2.28041  -0.02571   0.00000  -0.12053  -0.12053   2.15988
    A5        2.03258   0.01122   0.00000   0.05356   0.05356   2.08614
    A6        1.97020   0.01449   0.00000   0.06697   0.06697   2.03716
    D1        0.00000   0.00000   0.00000   0.00000   0.00000   0.00000
    D2        3.14159   0.00000   0.00000   0.00000   0.00000   3.14159
    D3        3.14159   0.00000   0.00000   0.00000   0.00000   3.14159
    D4        0.00000   0.00000   0.00000   0.00000   0.00000   0.00000
         Item               Value     Threshold  Converged?
 Maximum Force            0.076681     0.000450     NO 
 RMS     Force            0.024270     0.000300     NO 
 Maximum Displacement     0.147852     0.001800     NO 
 RMS     Displacement     0.067006     0.001200     NO 
 Predicted change in Energy=-8.430553D-03
 Lowest energy point so far.  Saving SCF results.
 GradGradGradGradGradGradGradGradGradGradGradGradGradGradGradGradGradGrad

 Leave Link  103 at Sat Feb 16 13:47:23 2019, MaxMem=   196608000 cpu:        14.2
 (Enter /cm/shared/c3ddb/gaussian/09.d01/g09/l202.exe)
                          Input orientation:                          
 ---------------------------------------------------------------------
 Center     Atomic      Atomic             Coordinates (Angstroms)
 Number     Number       Type             X           Y           Z
 ---------------------------------------------------------------------
      1          8           0        1.374490   -1.048929   -0.244645
      2          6           0       -0.712365    0.014313    0.094688
      3          6           0        0.678827    0.013355   -0.088593
      4          1           0       -1.261926   -0.927591    0.109937
      5          1           0       -1.259562    0.949240    0.223462
      6          1           0        1.180537    0.999612   -0.094850
 ---------------------------------------------------------------------
                    Distance matrix (angstroms):
                    1          2          3          4          5
     1  O    0.000000
     2  C    2.366557   0.000000
     3  C    1.279354   1.403213   0.000000
     4  H    2.662919   1.090612   2.165945   0.000000
     5  H    3.339166   1.090915   2.174997   1.880262   0.000000
     6  H    2.063148   2.142385   1.106551   3.117960   2.461289
                    6
     6  H    0.000000
 Stoichiometry    C2H3O(2)
 Framework group  CS[SG(C2H3O)]
 Deg. of freedom     9
 Full point group                 CS      NOp   2
 RotChk:  IX=2 Diff= 2.76D-01
 Largest Abelian subgroup         CS      NOp   2
 Largest concise Abelian subgroup C1      NOp   1
                         Standard orientation:                         
 ---------------------------------------------------------------------
 Center     Atomic      Atomic             Coordinates (Angstroms)
 Number     Number       Type             X           Y           Z
 ---------------------------------------------------------------------
      1          8           0        1.223356    0.048257    0.000000
      2          6           0       -1.086900   -0.464880    0.000000
      3          6           0        0.000000    0.422620    0.000000
      4          1           0       -0.912932   -1.541527    0.000000
      5          1           0       -2.112785   -0.093860    0.000000
      6          1           0       -0.239731    1.502890    0.000000
 ---------------------------------------------------------------------
 Rotational constants (GHZ):     66.9648528     11.1872600      9.5858345
 Leave Link  202 at Sat Feb 16 13:47:23 2019, MaxMem=   196608000 cpu:         0.7
 (Enter /cm/shared/c3ddb/gaussian/09.d01/g09/l301.exe)
 Standard basis: 6-31G (6D, 7F)
 Ernie: Thresh=  0.10000D-02 Tol=  0.10000D-05 Strict=F.
 There are    27 symmetry adapted cartesian basis functions of A'  symmetry.
 There are     6 symmetry adapted cartesian basis functions of A"  symmetry.
 There are    27 symmetry adapted basis functions of A'  symmetry.
 There are     6 symmetry adapted basis functions of A"  symmetry.
    33 basis functions,    78 primitive gaussians,    33 cartesian basis functions
    12 alpha electrons       11 beta electrons
       nuclear repulsion energy        62.8379590470 Hartrees.
 IExCor= 3630 DFT=T Ex+Corr=B97D ExCW=0 ScaHFX=  0.000000
 ScaDFX=  1.000000  1.000000  1.000000  1.000000 ScalE2=  1.000000  1.000000
 IRadAn=      0 IRanWt=     -1 IRanGd=            0 ICorTp=0 IEmpDi=121
 NAtoms=    6 NActive=    6 NUniq=    6 SFac= 1.00D+00 NAtFMM=   60 NAOKFM=F Big=F
 Integral buffers will be    131072 words long.
 Raffenetti 2 integral format.
 Two-electron integral symmetry is turned on.
 R6Disp:  Grimme-D2 Dispersion energy=       -0.0021120826 Hartrees.
 Nuclear repulsion after empirical dispersion term =       62.8358469644 Hartrees.
 Leave Link  301 at Sat Feb 16 13:47:23 2019, MaxMem=   196608000 cpu:         0.4
 (Enter /cm/shared/c3ddb/gaussian/09.d01/g09/l302.exe)
 NPDir=0 NMtPBC=     1 NCelOv=     1 NCel=       1 NClECP=     1 NCelD=      1
         NCelK=      1 NCelE2=     1 NClLst=     1 CellRange=     0.0.
 One-electron integrals computed using PRISM.
 NBasis=    33 RedAO= T EigKep=  1.24D-02  NBF=    27     6
 NBsUse=    33 1.00D-06 EigRej= -1.00D+00 NBFU=    27     6
 Precomputing XC quadrature grid using
 IXCGrd= 4 IRadAn=           0 IRanWt=          -1 IRanGd=           0 AccXCQ= 0.00D+00.
 Generated NRdTot=       0 NPtTot=           0 NUsed=           0 NTot=          32
 NSgBfM=    33    33    33    33    33 MxSgAt=     6 MxSgA2=     6.
 Leave Link  302 at Sat Feb 16 13:47:24 2019, MaxMem=   196608000 cpu:         3.7
 (Enter /cm/shared/c3ddb/gaussian/09.d01/g09/l303.exe)
 DipDrv:  MaxL=1.
 Leave Link  303 at Sat Feb 16 13:47:24 2019, MaxMem=   196608000 cpu:         0.9
 (Enter /cm/shared/c3ddb/gaussian/09.d01/g09/l401.exe)
 Initial guess from the checkpoint file:  "check.chk"
 B after Tr=     0.000000    0.000000    0.000000
         Rot=    0.995902    0.000000    0.000000   -0.090444 Ang= -10.38 deg.
 Guess basis will be translated and rotated to current coordinates.
 JPrj=2 DoOrth=T DoCkMO=T.
 Initial guess orbital symmetries:
 Alpha Orbitals:
       Occupied  (A') (A') (A') (A') (A') (A') (A') (A') (A") (A')
                 (A") (A')
       Virtual   (A') (A') (A') (A') (A') (A') (A') (A') (A') (A')
                 (A') (A') (A') (A') (A') (A') (A') (A") (A") (A")
                 (A")
 Beta  Orbitals:
       Occupied  (A') (A') (A') (A') (A') (A') (A') (A') (A') (A")
                 (A')
       Virtual   (A') (A') (A') (A') (A') (A') (A') (A') (A') (A')
                 (A') (A') (A') (A') (A') (A') (A') (A") (A") (A")
                 (A") (A")
 The electronic state of the initial guess is 2-A".
 Initial guess <Sx>= 0.0000 <Sy>= 0.0000 <Sz>= 0.5000 <S**2>= 0.7632 S= 0.5066
 Generating alternative initial guess.
 ExpMin= 1.61D-01 ExpMax= 5.48D+03 ExpMxC= 8.25D+02 IAcc=1 IRadAn=         1 AccDes= 0.00D+00
 Harris functional with IExCor= 3630 and IRadAn=       1 diagonalized for initial guess.
 HarFok:  IExCor= 3630 AccDes= 0.00D+00 IRadAn=         1 IDoV= 1 UseB2=F ITyADJ=14
 ICtDFT=  3500011 ScaDFX=  1.000000  1.000000  1.000000  1.000000
 FoFCou: FMM=F IPFlag=           0 FMFlag=      100000 FMFlg1=           0
         NFxFlg=           0 DoJE=T BraDBF=F KetDBF=T FulRan=T
         wScrn=  0.000000 ICntrl=     500 IOpCl=  0 I1Cent=   200000004 NGrid=           0
         NMat0=    1 NMatS0=      1 NMatT0=    0 NMatD0=    1 NMtDS0=    0 NMtDT0=    0
 Petite list used in FoFCou.
 Harris En= -153.054392012736    
 Leave Link  401 at Sat Feb 16 13:47:28 2019, MaxMem=   196608000 cpu:        19.5
 (Enter /cm/shared/c3ddb/gaussian/09.d01/g09/l502.exe)
 UHF open shell SCF:
 Using DIIS extrapolation, IDIIS=  1040.
 Integral symmetry usage will be decided dynamically.
 Keep J ints in memory in symmetry-blocked form, NReq=1029148.
 IVT=        9750 IEndB=        9750 NGot=   196608000 MDV=   196503697
 LenX=   196503697 LenY=   196502167
 Requested convergence on RMS density matrix=1.00D-08 within  64 cycles.
 Requested convergence on MAX density matrix=1.00D-06.
 Requested convergence on             energy=1.00D-06.
 No special actions if energy rises.
 FoFCou: FMM=F IPFlag=           0 FMFlag=           0 FMFlg1=           0
         NFxFlg=           0 DoJE=F BraDBF=F KetDBF=F FulRan=T
         wScrn=  0.000000 ICntrl=     600 IOpCl=  0 I1Cent=           0 NGrid=           0
         NMat0=    1 NMatS0=    561 NMatT0=    0 NMatD0=    1 NMtDS0=    0 NMtDT0=    0
 Petite list used in FoFCou.
 Integral accuracy reduced to 1.0D-05 until final iterations.

 Cycle   1  Pass 0  IDiag  1:
 E= -153.025567077953    
 DIIS: error= 6.36D-03 at cycle   1 NSaved=   1.
 NSaved= 1 IEnMin= 1 EnMin= -153.025567077953     IErMin= 1 ErrMin= 6.36D-03
 ErrMax= 6.36D-03  0.00D+00 EMaxC= 1.00D-01 BMatC= 1.07D-02 BMatP= 1.07D-02
 IDIUse=3 WtCom= 9.36D-01 WtEn= 6.36D-02
 Coeff-Com:  0.100D+01
 Coeff-En:   0.100D+01
 Coeff:      0.100D+01
 Gap=     0.624 Goal=   None    Shift=    0.000
 Gap=     0.330 Goal=   None    Shift=    0.000
 GapD=    0.330 DampG=1.000 DampE=1.000 DampFc=1.0000 IDamp=-1.
 RMSDP=4.56D-03 MaxDP=3.42D-02              OVMax= 3.29D-02

 Cycle   2  Pass 0  IDiag  1:
 E= -153.029764081929     Delta-E=       -0.004197003976 Rises=F Damp=F
 DIIS: error= 4.50D-03 at cycle   2 NSaved=   2.
 NSaved= 2 IEnMin= 2 EnMin= -153.029764081929     IErMin= 2 ErrMin= 4.50D-03
 ErrMax= 4.50D-03  0.00D+00 EMaxC= 1.00D-01 BMatC= 2.49D-03 BMatP= 1.07D-02
 IDIUse=3 WtCom= 9.55D-01 WtEn= 4.50D-02
 Coeff-Com:  0.246D+00 0.754D+00
 Coeff-En:   0.000D+00 0.100D+01
 Coeff:      0.235D+00 0.765D+00
 Gap=     0.180 Goal=   None    Shift=    0.000
 Gap=     0.028 Goal=   None    Shift=    0.000
 RMSDP=1.97D-03 MaxDP=1.89D-02 DE=-4.20D-03 OVMax= 4.58D-02

 Cycle   3  Pass 0  IDiag  1:
 E= -153.028280733740     Delta-E=        0.001483348190 Rises=F Damp=F
 DIIS: error= 1.07D-02 at cycle   3 NSaved=   3.
 NSaved= 3 IEnMin= 2 EnMin= -153.029764081929     IErMin= 2 ErrMin= 4.50D-03
 ErrMax= 1.07D-02  0.00D+00 EMaxC= 1.00D-01 BMatC= 9.18D-03 BMatP= 2.49D-03
 IDIUse=2 WtCom= 0.00D+00 WtEn= 1.00D+00
 Coeff-En:   0.000D+00 0.705D+00 0.295D+00
 Coeff:      0.000D+00 0.705D+00 0.295D+00
 Gap=     0.188 Goal=   None    Shift=    0.000
 Gap=     0.034 Goal=   None    Shift=    0.000
 RMSDP=1.29D-03 MaxDP=1.37D-02 DE= 1.48D-03 OVMax= 3.11D-02

 Cycle   4  Pass 0  IDiag  1:
 E= -153.030351299267     Delta-E=       -0.002070565527 Rises=F Damp=F
 DIIS: error= 1.43D-03 at cycle   4 NSaved=   4.
 NSaved= 4 IEnMin= 4 EnMin= -153.030351299267     IErMin= 4 ErrMin= 1.43D-03
 ErrMax= 1.43D-03  0.00D+00 EMaxC= 1.00D-01 BMatC= 3.17D-04 BMatP= 2.49D-03
 IDIUse=3 WtCom= 9.86D-01 WtEn= 1.43D-02
 Coeff-Com:  0.672D-02 0.355D+00 0.133D+00 0.505D+00
 Coeff-En:   0.000D+00 0.726D-01 0.000D+00 0.927D+00
 Coeff:      0.663D-02 0.351D+00 0.131D+00 0.511D+00
 Gap=     0.188 Goal=   None    Shift=    0.000
 Gap=     0.034 Goal=   None    Shift=    0.000
 RMSDP=3.58D-04 MaxDP=2.68D-03 DE=-2.07D-03 OVMax= 2.60D-03

 Cycle   5  Pass 0  IDiag  1:
 E= -153.030441470925     Delta-E=       -0.000090171659 Rises=F Damp=F
 DIIS: error= 2.09D-04 at cycle   5 NSaved=   5.
 NSaved= 5 IEnMin= 5 EnMin= -153.030441470925     IErMin= 5 ErrMin= 2.09D-04
 ErrMax= 2.09D-04  0.00D+00 EMaxC= 1.00D-01 BMatC= 4.34D-06 BMatP= 3.17D-04
 IDIUse=3 WtCom= 9.98D-01 WtEn= 2.09D-03
 Coeff-Com:  0.801D-03 0.977D-01 0.293D-01 0.189D+00 0.683D+00
 Coeff-En:   0.000D+00 0.000D+00 0.000D+00 0.000D+00 0.100D+01
 Coeff:      0.799D-03 0.975D-01 0.292D-01 0.189D+00 0.684D+00
 Gap=     0.188 Goal=   None    Shift=    0.000
 Gap=     0.034 Goal=   None    Shift=    0.000
 RMSDP=5.86D-05 MaxDP=4.19D-04 DE=-9.02D-05 OVMax= 1.17D-03

 Cycle   6  Pass 0  IDiag  1:
 E= -153.030442470845     Delta-E=       -0.000000999920 Rises=F Damp=F
 DIIS: error= 1.31D-04 at cycle   6 NSaved=   6.
 NSaved= 6 IEnMin= 6 EnMin= -153.030442470845     IErMin= 6 ErrMin= 1.31D-04
 ErrMax= 1.31D-04  0.00D+00 EMaxC= 1.00D-01 BMatC= 1.43D-06 BMatP= 4.34D-06
 IDIUse=3 WtCom= 9.99D-01 WtEn= 1.31D-03
 Coeff-Com: -0.154D-03 0.224D-01 0.575D-02 0.619D-01 0.418D+00 0.492D+00
 Coeff-En:   0.000D+00 0.000D+00 0.000D+00 0.000D+00 0.226D+00 0.774D+00
 Coeff:     -0.154D-03 0.224D-01 0.574D-02 0.618D-01 0.417D+00 0.493D+00
 Gap=     0.188 Goal=   None    Shift=    0.000
 Gap=     0.034 Goal=   None    Shift=    0.000
 RMSDP=2.04D-05 MaxDP=3.34D-04 DE=-1.00D-06 OVMax= 5.18D-04

 Cycle   7  Pass 0  IDiag  1:
 E= -153.030442907062     Delta-E=       -0.000000436217 Rises=F Damp=F
 DIIS: error= 2.50D-05 at cycle   7 NSaved=   7.
 NSaved= 7 IEnMin= 7 EnMin= -153.030442907062     IErMin= 7 ErrMin= 2.50D-05
 ErrMax= 2.50D-05  0.00D+00 EMaxC= 1.00D-01 BMatC= 6.45D-08 BMatP= 1.43D-06
 IDIUse=1 WtCom= 1.00D+00 WtEn= 0.00D+00
 Coeff-Com: -0.608D-04-0.118D-01-0.134D-02-0.245D-01-0.818D-01 0.508D-01
 Coeff-Com:  0.107D+01
 Coeff:     -0.608D-04-0.118D-01-0.134D-02-0.245D-01-0.818D-01 0.508D-01
 Coeff:      0.107D+01
 Gap=     0.188 Goal=   None    Shift=    0.000
 Gap=     0.034 Goal=   None    Shift=    0.000
 RMSDP=7.93D-06 MaxDP=8.34D-05 DE=-4.36D-07 OVMax= 1.17D-04

 Initial convergence to 1.0D-05 achieved.  Increase integral accuracy.
 Cycle   8  Pass 1  IDiag  1:
 E= -153.030429183211     Delta-E=        0.000013723851 Rises=F Damp=F
 DIIS: error= 1.60D-05 at cycle   1 NSaved=   1.
 NSaved= 1 IEnMin= 1 EnMin= -153.030429183211     IErMin= 1 ErrMin= 1.60D-05
 ErrMax= 1.60D-05  0.00D+00 EMaxC= 1.00D-01 BMatC= 2.38D-08 BMatP= 2.38D-08
 IDIUse=1 WtCom= 1.00D+00 WtEn= 0.00D+00
 Coeff-Com:  0.100D+01
 Coeff:      0.100D+01
 Gap=     0.188 Goal=   None    Shift=    0.000
 Gap=     0.034 Goal=   None    Shift=    0.000
 RMSDP=7.93D-06 MaxDP=8.34D-05 DE= 1.37D-05 OVMax= 9.03D-05

 Cycle   9  Pass 1  IDiag  1:
 E= -153.030429186105     Delta-E=       -0.000000002894 Rises=F Damp=F
 DIIS: error= 1.91D-05 at cycle   2 NSaved=   2.
 NSaved= 2 IEnMin= 2 EnMin= -153.030429186105     IErMin= 1 ErrMin= 1.60D-05
 ErrMax= 1.91D-05  0.00D+00 EMaxC= 1.00D-01 BMatC= 3.20D-08 BMatP= 2.38D-08
 IDIUse=1 WtCom= 1.00D+00 WtEn= 0.00D+00
 Coeff-Com:  0.554D+00 0.446D+00
 Coeff:      0.554D+00 0.446D+00
 Gap=     0.188 Goal=   None    Shift=    0.000
 Gap=     0.034 Goal=   None    Shift=    0.000
 RMSDP=4.61D-06 MaxDP=4.71D-05 DE=-2.89D-09 OVMax= 1.04D-04

 Cycle  10  Pass 1  IDiag  1:
 E= -153.030429187272     Delta-E=       -0.000000001167 Rises=F Damp=F
 DIIS: error= 1.75D-05 at cycle   3 NSaved=   3.
 NSaved= 3 IEnMin= 3 EnMin= -153.030429187272     IErMin= 1 ErrMin= 1.60D-05
 ErrMax= 1.75D-05  0.00D+00 EMaxC= 1.00D-01 BMatC= 2.48D-08 BMatP= 2.38D-08
 IDIUse=1 WtCom= 1.00D+00 WtEn= 0.00D+00
 Coeff-Com: -0.174D-02 0.468D+00 0.533D+00
 Coeff:     -0.174D-02 0.468D+00 0.533D+00
 Gap=     0.188 Goal=   None    Shift=    0.000
 Gap=     0.034 Goal=   None    Shift=    0.000
 RMSDP=2.54D-06 MaxDP=2.99D-05 DE=-1.17D-09 OVMax= 6.75D-05

 Cycle  11  Pass 1  IDiag  1:
 E= -153.030429192991     Delta-E=       -0.000000005719 Rises=F Damp=F
 DIIS: error= 2.98D-06 at cycle   4 NSaved=   4.
 NSaved= 4 IEnMin= 4 EnMin= -153.030429192991     IErMin= 4 ErrMin= 2.98D-06
 ErrMax= 2.98D-06  0.00D+00 EMaxC= 1.00D-01 BMatC= 4.10D-10 BMatP= 2.38D-08
 IDIUse=1 WtCom= 1.00D+00 WtEn= 0.00D+00
 Coeff-Com: -0.645D-02 0.224D+00 0.297D+00 0.485D+00
 Coeff:     -0.645D-02 0.224D+00 0.297D+00 0.485D+00
 Gap=     0.188 Goal=   None    Shift=    0.000
 Gap=     0.034 Goal=   None    Shift=    0.000
 RMSDP=4.50D-07 MaxDP=4.50D-06 DE=-5.72D-09 OVMax= 9.65D-06

 Cycle  12  Pass 1  IDiag  1:
 E= -153.030429193116     Delta-E=       -0.000000000125 Rises=F Damp=F
 DIIS: error= 1.02D-06 at cycle   5 NSaved=   5.
 NSaved= 5 IEnMin= 5 EnMin= -153.030429193116     IErMin= 5 ErrMin= 1.02D-06
 ErrMax= 1.02D-06  0.00D+00 EMaxC= 1.00D-01 BMatC= 5.25D-11 BMatP= 4.10D-10
 IDIUse=1 WtCom= 1.00D+00 WtEn= 0.00D+00
 Coeff-Com: -0.655D-02 0.202D-01 0.638D-01 0.255D+00 0.668D+00
 Coeff:     -0.655D-02 0.202D-01 0.638D-01 0.255D+00 0.668D+00
 Gap=     0.188 Goal=   None    Shift=    0.000
 Gap=     0.034 Goal=   None    Shift=    0.000
 RMSDP=1.18D-07 MaxDP=1.48D-06 DE=-1.25D-10 OVMax= 2.86D-06

 Cycle  13  Pass 1  IDiag  1:
 E= -153.030429193132     Delta-E=       -0.000000000016 Rises=F Damp=F
 DIIS: error= 2.00D-07 at cycle   6 NSaved=   6.
 NSaved= 6 IEnMin= 6 EnMin= -153.030429193132     IErMin= 6 ErrMin= 2.00D-07
 ErrMax= 2.00D-07  0.00D+00 EMaxC= 1.00D-01 BMatC= 2.99D-12 BMatP= 5.25D-11
 IDIUse=1 WtCom= 1.00D+00 WtEn= 0.00D+00
 Coeff-Com:  0.145D-02-0.520D-01-0.603D-01-0.833D-01 0.112D-01 0.118D+01
 Coeff:      0.145D-02-0.520D-01-0.603D-01-0.833D-01 0.112D-01 0.118D+01
 Gap=     0.188 Goal=   None    Shift=    0.000
 Gap=     0.034 Goal=   None    Shift=    0.000
 RMSDP=8.29D-08 MaxDP=1.15D-06 DE=-1.61D-11 OVMax= 1.59D-06

 Cycle  14  Pass 1  IDiag  1:
 E= -153.030429193135     Delta-E=       -0.000000000002 Rises=F Damp=F
 DIIS: error= 7.93D-08 at cycle   7 NSaved=   7.
 NSaved= 7 IEnMin= 7 EnMin= -153.030429193135     IErMin= 7 ErrMin= 7.93D-08
 ErrMax= 7.93D-08  0.00D+00 EMaxC= 1.00D-01 BMatC= 5.14D-13 BMatP= 2.99D-12
 IDIUse=1 WtCom= 1.00D+00 WtEn= 0.00D+00
 Coeff-Com:  0.880D-03-0.176D-01-0.248D-01-0.392D-01-0.442D-01 0.404D+00
 Coeff-Com:  0.721D+00
 Coeff:      0.880D-03-0.176D-01-0.248D-01-0.392D-01-0.442D-01 0.404D+00
 Coeff:      0.721D+00
 Gap=     0.188 Goal=   None    Shift=    0.000
 Gap=     0.034 Goal=   None    Shift=    0.000
 RMSDP=1.58D-08 MaxDP=1.97D-07 DE=-2.30D-12 OVMax= 4.74D-07

 Cycle  15  Pass 1  IDiag  1:
 E= -153.030429193135     Delta-E=        0.000000000000 Rises=F Damp=F
 DIIS: error= 1.85D-08 at cycle   8 NSaved=   8.
 NSaved= 8 IEnMin= 8 EnMin= -153.030429193135     IErMin= 8 ErrMin= 1.85D-08
 ErrMax= 1.85D-08  0.00D+00 EMaxC= 1.00D-01 BMatC= 3.64D-14 BMatP= 5.14D-13
 IDIUse=1 WtCom= 1.00D+00 WtEn= 0.00D+00
 Coeff-Com:  0.123D-03-0.531D-03-0.208D-02-0.453D-02-0.174D-01 0.159D-01
 Coeff-Com:  0.279D+00 0.730D+00
 Coeff:      0.123D-03-0.531D-03-0.208D-02-0.453D-02-0.174D-01 0.159D-01
 Coeff:      0.279D+00 0.730D+00
 Gap=     0.188 Goal=   None    Shift=    0.000
 Gap=     0.034 Goal=   None    Shift=    0.000
 RMSDP=5.13D-09 MaxDP=4.45D-08 DE=-3.41D-13 OVMax= 4.03D-08

 SCF Done:  E(UB97D) =  -153.030429193     A.U. after   15 cycles
            NFock= 15  Conv=0.51D-08     -V/T= 2.0046
 <Sx>= 0.0000 <Sy>= 0.0000 <Sz>= 0.5000 <S**2>= 0.7640 S= 0.5070
 <L.S>= 0.000000000000E+00
 KE= 1.523345689155D+02 PE=-4.840453108000D+02 EE= 1.158444657269D+02
 Annihilation of the first spin contaminant:
 S**2 before annihilation     0.7640,   after     0.7501
 Leave Link  502 at Sat Feb 16 13:47:43 2019, MaxMem=   196608000 cpu:        92.1
 (Enter /cm/shared/c3ddb/gaussian/09.d01/g09/l508.exe)
 QCSCF skips out because SCF is already converged.
 Leave Link  508 at Sat Feb 16 13:47:43 2019, MaxMem=   196608000 cpu:         0.0
 (Enter /cm/shared/c3ddb/gaussian/09.d01/g09/l701.exe)
 Compute integral first derivatives.
 ... and contract with generalized density number  0.
 R6Disp: Adding Grimme-D2 dispersion energy 1st derivatives to the gradient.
 Leave Link  701 at Sat Feb 16 13:47:44 2019, MaxMem=   196608000 cpu:         2.7
 (Enter /cm/shared/c3ddb/gaussian/09.d01/g09/l702.exe)
 L702 exits ... SP integral derivatives will be done elsewhere.
 Leave Link  702 at Sat Feb 16 13:47:44 2019, MaxMem=   196608000 cpu:         0.2
 (Enter /cm/shared/c3ddb/gaussian/09.d01/g09/l703.exe)
 Compute integral first derivatives, UseDBF=F ICtDFT=           0.
 Integral derivatives from FoFJK, PRISM(SPDF).
 Calling FoFJK, ICntrl=      2527 FMM=F ISym2X=1 I1Cent= 0 IOpClX= 0 NMat=1 NMatS=1 NMatT=0.
 FoFJK:  IHMeth= 1 ICntrl=    2527 DoSepK=F KAlg= 0 I1Cent=   0 FoldK=F
 IRaf=         0 NMat=   1 IRICut=       1 DoRegI=T DoRafI=F ISym2E= 1.
 FoFCou: FMM=F IPFlag=           0 FMFlag=      100000 FMFlg1=         800
         NFxFlg=           0 DoJE=F BraDBF=F KetDBF=F FulRan=T
         wScrn=  0.000000 ICntrl=    2527 IOpCl=  0 I1Cent=           0 NGrid=           0
         NMat0=    1 NMatS0=      1 NMatT0=    0 NMatD0=    1 NMtDS0=    0 NMtDT0=    0
 Petite list used in FoFCou.
 Leave Link  703 at Sat Feb 16 13:47:44 2019, MaxMem=   196608000 cpu:         3.0
 (Enter /cm/shared/c3ddb/gaussian/09.d01/g09/l716.exe)
 Dipole        =-1.19674602D+00 2.27861150D-02 1.62977202D-16
 ***** Axes restored to original set *****
 -------------------------------------------------------------------
 Center     Atomic                   Forces (Hartrees/Bohr)
 Number     Number              X              Y              Z
 -------------------------------------------------------------------
      1        8           0.001390149   -0.004474073   -0.000454454
      2        6          -0.013368312   -0.001057627    0.001696491
      3        6           0.011683453    0.004513403   -0.001264986
      4        1          -0.000308908   -0.000475523    0.000011842
      5        1          -0.000526924    0.000235962    0.000083709
      6        1           0.001130542    0.001257858   -0.000072602
 -------------------------------------------------------------------
 Cartesian Forces:  Max     0.013368312 RMS     0.004514584
 Leave Link  716 at Sat Feb 16 13:47:44 2019, MaxMem=   196608000 cpu:         0.2
 (Enter /cm/shared/c3ddb/gaussian/09.d01/g09/l103.exe)

 GradGradGradGradGradGradGradGradGradGradGradGradGradGradGradGradGradGrad
 Berny optimization.
 Using GEDIIS/GDIIS optimizer.
 FormGI is forming the generalized inverse of G from B-inverse, IUseBI=4.
 Internal  Forces:  Max     0.014315541 RMS     0.003983430
 Search for a local minimum.
 Step number   2 out of a maximum of   25
 All quantities printed in internal units (Hartrees-Bohrs-Radians)
 RMS Force = .39834D-02 SwitMx=.10000D-02 MixMth= 1
 Mixed Optimization -- RFO/linear search
 Update second derivatives using D2CorX and points    1    2
 DE= -9.02D-03 DEPred=-8.43D-03 R= 1.07D+00
 TightC=F SS=  1.41D+00  RLast= 1.98D-01 DXNew= 5.0454D-01 5.9520D-01
 Trust test= 1.07D+00 RLast= 1.98D-01 DXMaxT set to 5.05D-01
 The second derivative matrix:
                          R1        R2        R3        R4        R5
           R1           0.63420
           R2           0.07834   0.51140
           R3           0.00120   0.00050   0.36521
           R4           0.00005  -0.00386  -0.00159   0.37075
           R5           0.03391  -0.00133  -0.00048   0.00116   0.33015
           A1          -0.00309   0.00523   0.00951  -0.01080   0.00356
           A2           0.00278   0.01127  -0.01304   0.00561  -0.00242
           A3           0.00032  -0.01650   0.00354   0.00519  -0.00114
           A4           0.01503   0.01215  -0.00813   0.00609  -0.01877
           A5           0.02938  -0.02792   0.00074  -0.00246   0.00317
           A6          -0.04440   0.01578   0.00739  -0.00363   0.01560
           D1           0.00000   0.00000   0.00000   0.00000   0.00000
           D2           0.00000   0.00000   0.00000   0.00000   0.00000
           D3           0.00000   0.00000   0.00000   0.00000   0.00000
           D4           0.00000   0.00000   0.00000   0.00000   0.00000
                          A1        A2        A3        A4        A5
           A1           0.07885
           A2          -0.04406   0.08058
           A3          -0.03479  -0.03652   0.07131
           A4          -0.01900   0.01662   0.00239   0.13819
           A5           0.00316  -0.00447   0.00131  -0.07543   0.12908
           A6           0.01585  -0.01215  -0.00370  -0.06276  -0.05365
           D1           0.00000   0.00000   0.00000   0.00000   0.00000
           D2           0.00000   0.00000   0.00000   0.00000   0.00000
           D3           0.00000   0.00000   0.00000   0.00000   0.00000
           D4           0.00000   0.00000   0.00000   0.00000   0.00000
                          A6        D1        D2        D3        D4
           A6           0.11642
           D1           0.00000   0.02832
           D2           0.00000  -0.00276   0.02429
           D3           0.00000   0.01023  -0.01733   0.02406
           D4           0.00000  -0.02085   0.00972  -0.00350   0.02707
 ITU=  1  0
 Use linear search instead of GDIIS.
     Eigenvalues ---    0.01365   0.03149   0.05860   0.10392   0.11122
     Eigenvalues ---    0.16561   0.21168   0.33217   0.36595   0.37328
     Eigenvalues ---    0.48411   0.67822
 RFO step:  Lambda=-4.93055295D-05 EMin= 1.36548208D-02
 Quartic linear search produced a step of  0.20450.
 Iteration  1 RMS(Cart)=  0.01485588 RMS(Int)=  0.00010472
 Iteration  2 RMS(Cart)=  0.00010957 RMS(Int)=  0.00000000
 Iteration  3 RMS(Cart)=  0.00000000 RMS(Int)=  0.00000000
 ITry= 1 IFail=0 DXMaxC= 3.39D-02 DCOld= 1.00D+10 DXMaxT= 5.05D-01 DXLimC= 3.00D+00 Rises=F
 ClnCor:  largest displacement from symmetrization is 1.20D-08 for atom     5.
 Variable       Old X    -DE/DX   Delta X   Delta X   Delta X     New X
                                 (Linear)    (Quad)   (Total)
[...]
 (Enter /cm/shared/c3ddb/gaussian/09.d01/g09/l103.exe)

 GradGradGradGradGradGradGradGradGradGradGradGradGradGradGradGradGradGrad
 Berny optimization.
 Using GEDIIS/GDIIS optimizer.
 FormGI is forming the generalized inverse of G from B-inverse, IUseBI=4.
 Internal  Forces:  Max     0.000096764 RMS     0.000025656
 Search for a local minimum.
 Step number   5 out of a maximum of   25
 All quantities printed in internal units (Hartrees-Bohrs-Radians)
 RMS Force = .25656D-04 SwitMx=.10000D-02 MixMth= 2
 Mixed Optimization -- En-DIIS/RFO-DIIS
 Swapping is turned off.
 Update second derivatives using D2CorX and points    1    2    3    4    5
 DE= -7.98D-07 DEPred=-6.58D-07 R= 1.21D+00
 Trust test= 1.21D+00 RLast= 2.18D-03 DXMaxT set to 5.05D-01
 The second derivative matrix:
                          R1        R2        R3        R4        R5
           R1           0.57613
           R2           0.11814   0.36650
           R3          -0.00330  -0.00044   0.36505
           R4          -0.00507  -0.00360  -0.00164   0.37078
           R5           0.01865   0.00283  -0.00142   0.00024   0.32643
           A1          -0.00666   0.00752   0.00937  -0.01080   0.00289
           A2           0.00680   0.00780  -0.01306   0.00550  -0.00183
           A3          -0.00014  -0.01532   0.00369   0.00530  -0.00106
           A4           0.04336   0.01639  -0.00803   0.00600  -0.01352
           A5           0.01574  -0.02796   0.00085  -0.00219   0.00090
           A6          -0.05910   0.01157   0.00718  -0.00381   0.01262
           D1           0.00000   0.00000   0.00000   0.00000   0.00000
           D2           0.00000   0.00000   0.00000   0.00000   0.00000
           D3           0.00000   0.00000   0.00000   0.00000   0.00000
           D4           0.00000   0.00000   0.00000   0.00000   0.00000
                          A1        A2        A3        A4        A5
           A1           0.07856
           A2          -0.04397   0.08078
           A3          -0.03459  -0.03681   0.07139
           A4          -0.01999   0.01915   0.00084   0.14714
           A5           0.00361  -0.00579   0.00218  -0.08175   0.13307
           A6           0.01638  -0.01336  -0.00302  -0.06539  -0.05132
           D1           0.00000   0.00000   0.00000   0.00000   0.00000
           D2           0.00000   0.00000   0.00000   0.00000   0.00000
           D3           0.00000   0.00000   0.00000   0.00000   0.00000
           D4           0.00000   0.00000   0.00000   0.00000   0.00000
                          A6        D1        D2        D3        D4
           A6           0.11671
           D1           0.00000   0.02832
           D2           0.00000  -0.00276   0.02429
           D3           0.00000   0.01023  -0.01733   0.02406
           D4           0.00000  -0.02085   0.00972  -0.00350   0.02707
 ITU=  0  1  1  1  0
     Eigenvalues ---    0.01365   0.03149   0.05860   0.10366   0.10985
     Eigenvalues ---    0.15734   0.22310   0.32726   0.33124   0.36550
     Eigenvalues ---    0.37362   0.64098
 En-DIIS/RFO-DIIS IScMMF=        0 using points:     5    4    3
 RFO step:  Lambda=-1.33066066D-08.
 NNeg= 0 NP= 3 Switch=  2.50D-03 Rises=F DC=  1.54D-05 SmlDif=  1.00D-05
 RMS Error=  0.3552065018D-04 NUsed= 3 EDIIS=F
 DidBck=F Rises=F RFO-DIIS coefs:    1.17153   -0.19821    0.02668
 Iteration  1 RMS(Cart)=  0.00005794 RMS(Int)=  0.00000001
 Iteration  2 RMS(Cart)=  0.00000000 RMS(Int)=  0.00000000
 ITry= 1 IFail=0 DXMaxC= 1.11D-04 DCOld= 1.00D+10 DXMaxT= 5.05D-01 DXLimC= 3.00D+00 Rises=F
 ClnCor:  largest displacement from symmetrization is 1.29D-08 for atom     3.
 Variable       Old X    -DE/DX   Delta X   Delta X   Delta X     New X
                                 (Linear)    (Quad)   (Total)
    R1        2.41991  -0.00010  -0.00017  -0.00002  -0.00019   2.41972
    R2        2.68968  -0.00001   0.00007  -0.00004   0.00003   2.68971
    R3        2.06227   0.00000  -0.00002   0.00002   0.00000   2.06227
    R4        2.06306   0.00000  -0.00002   0.00002   0.00001   2.06307
    R5        2.09480  -0.00002  -0.00006   0.00002  -0.00003   2.09476
    A1        2.08710   0.00000  -0.00001   0.00004   0.00003   2.08713
    A2        2.11452   0.00000  -0.00004   0.00001  -0.00004   2.11449
    A3        2.08156   0.00000   0.00005  -0.00004   0.00001   2.08157
    A4        2.14531   0.00000  -0.00002   0.00005   0.00003   2.14534
    A5        2.09303   0.00001   0.00007  -0.00002   0.00006   2.09309
    A6        2.04485   0.00000  -0.00005  -0.00004  -0.00009   2.04476
    D1        0.00000   0.00000   0.00000   0.00000   0.00000   0.00000
    D2        3.14159   0.00000   0.00000   0.00000   0.00000   3.14159
    D3        3.14159   0.00000   0.00000   0.00000   0.00000   3.14159
    D4        0.00000   0.00000   0.00000   0.00000   0.00000   0.00000
         Item               Value     Threshold  Converged?
 Maximum Force            0.000097     0.000450     YES
 RMS     Force            0.000026     0.000300     YES
 Maximum Displacement     0.000111     0.001800     YES
 RMS     Displacement     0.000058     0.001200     YES
 Predicted change in Energy=-9.434862D-09
 Optimization completed.
    -- Stationary point found.
                           ----------------------------
                           !   Optimized Parameters   !
                           ! (Angstroms and Degrees)  !
 --------------------------                            --------------------------
 ! Name  Definition              Value          Derivative Info.                !
 --------------------------------------------------------------------------------
 ! R1    R(1,3)                  1.2806         -DE/DX =   -0.0001              !
 ! R2    R(2,3)                  1.4233         -DE/DX =    0.0                 !
 ! R3    R(2,4)                  1.0913         -DE/DX =    0.0                 !
 ! R4    R(2,5)                  1.0917         -DE/DX =    0.0                 !
 ! R5    R(3,6)                  1.1085         -DE/DX =    0.0                 !
 ! A1    A(3,2,4)              119.5821         -DE/DX =    0.0                 !
 ! A2    A(3,2,5)              121.1534         -DE/DX =    0.0                 !
 ! A3    A(4,2,5)              119.2645         -DE/DX =    0.0                 !
 ! A4    A(1,3,2)              122.9172         -DE/DX =    0.0                 !
 ! A5    A(1,3,6)              119.9216         -DE/DX =    0.0                 !
 ! A6    A(2,3,6)              117.1612         -DE/DX =    0.0                 !
 ! D1    D(4,2,3,1)              0.0            -DE/DX =    0.0                 !
 ! D2    D(4,2,3,6)            180.0            -DE/DX =    0.0                 !
 ! D3    D(5,2,3,1)            180.0            -DE/DX =    0.0                 !
 ! D4    D(5,2,3,6)              0.0            -DE/DX =    0.0                 !
 --------------------------------------------------------------------------------
 Lowest energy point so far.  Saving SCF results.
 GradGradGradGradGradGradGradGradGradGradGradGradGradGradGradGradGradGrad

 Largest change from initial coordinates is atom    5       0.258 Angstoms.
 Leave Link  103 at Sat Feb 16 13:48:31 2019, MaxMem=   196608000 cpu:        12.7
 (Enter /cm/shared/c3ddb/gaussian/09.d01/g09/l202.exe)
                          Input orientation:                          
 ---------------------------------------------------------------------
 Center     Atomic      Atomic             Coordinates (Angstroms)
 Number     Number       Type             X           Y           Z
 ---------------------------------------------------------------------
      1          8           0        1.372185   -1.054200   -0.244661
      2          6           0       -0.721715    0.016364    0.096044
      3          6           0        0.689428    0.018025   -0.089706
      4          1           0       -1.262192   -0.931606    0.109729
      5          1           0       -1.275427    0.948304    0.225495
      6          1           0        1.197721    1.003113   -0.096901
 ---------------------------------------------------------------------
                    Distance matrix (angstroms):
                    1          2          3          4          5
     1  O    0.000000
     2  C    2.376258   0.000000
     3  C    1.280560   1.423316   0.000000
     4  H    2.660932   1.091307   2.179539   0.000000
     5  H    3.352747   1.091726   2.196685   1.883517   0.000000
     6  H    2.069978   2.166826   1.108519   3.136400   2.494675
                    6
     6  H    0.000000
 Stoichiometry    C2H3O(2)
 Framework group  CS[SG(C2H3O)]
 Deg. of freedom     9
 Full point group                 CS      NOp   2
 RotChk:  IX=2 Diff= 5.99D-16
 Largest Abelian subgroup         CS      NOp   2
 Largest concise Abelian subgroup C1      NOp   1
                         Standard orientation:                         
 ---------------------------------------------------------------------
 Center     Atomic      Atomic             Coordinates (Angstroms)
 Number     Number       Type             X           Y           Z
 ---------------------------------------------------------------------
      1          8           0        1.224525    0.058743    0.000000
      2          6           0       -1.089197   -0.482825    0.000000
      3          6           0        0.000000    0.433406    0.000000
      4          1           0       -0.890539   -1.555898    0.000000
      5          1           0       -2.122824   -0.131430    0.000000
      6          1           0       -0.247652    1.513906    0.000000
 ---------------------------------------------------------------------
 Rotational constants (GHZ):     65.4077802     11.1007109      9.4900951
 Leave Link  202 at Sat Feb 16 13:48:32 2019, MaxMem=   196608000 cpu:         0.9
 (Enter /cm/shared/c3ddb/gaussian/09.d01/g09/l601.exe)
 Copying SCF densities to generalized density rwf, IOpCl= 1 IROHF=0.

 **********************************************************************

            Population analysis using the SCF density.

 **********************************************************************

 Orbital symmetries:
 Alpha Orbitals:
       Occupied  (A') (A') (A') (A') (A') (A') (A') (A') (A") (A')
                 (A") (A')
       Virtual   (A") (A') (A') (A') (A') (A') (A") (A') (A") (A')
                 (A') (A') (A') (A') (A') (A') (A") (A') (A') (A')
                 (A')
 Beta  Orbitals:
       Occupied  (A') (A') (A') (A') (A') (A') (A') (A') (A') (A")
                 (A')
       Virtual   (A") (A") (A') (A') (A') (A') (A') (A") (A') (A")
                 (A') (A') (A') (A') (A') (A') (A') (A") (A') (A')
                 (A') (A')
 The electronic state is 2-A".
 Alpha  occ. eigenvalues --  -18.77833  -9.99776  -9.95834  -0.95926  -0.70211
 Alpha  occ. eigenvalues --   -0.53080  -0.44885  -0.40125  -0.36045  -0.35985
 Alpha  occ. eigenvalues --   -0.23218  -0.21864
 Alpha virt. eigenvalues --   -0.03399   0.08291   0.09656   0.13461   0.23227
 Alpha virt. eigenvalues --    0.26364   0.48113   0.50854   0.55812   0.58122
 Alpha virt. eigenvalues --    0.59778   0.60613   0.77541   0.83046   0.86337
 Alpha virt. eigenvalues --    0.88568   0.91214   1.00377   1.05546   1.15577
 Alpha virt. eigenvalues --    1.64481
  Beta  occ. eigenvalues --  -18.77246  -9.99846  -9.95530  -0.94143  -0.67594
  Beta  occ. eigenvalues --   -0.52217  -0.43965  -0.39055  -0.34929  -0.33341
  Beta  occ. eigenvalues --   -0.20445
  Beta virt. eigenvalues --   -0.16895  -0.00752   0.09080   0.10470   0.14010
  Beta virt. eigenvalues --    0.23618   0.26966   0.49547   0.51515   0.56711
  Beta virt. eigenvalues --    0.58330   0.59865   0.60908   0.78264   0.83274
  Beta virt. eigenvalues --    0.87611   0.89309   0.94261   1.01108   1.06213
  Beta virt. eigenvalues --    1.15605   1.66004
          Condensed to atoms (all electrons):
               1          2          3          4          5          6
     1  O    8.106958  -0.088073   0.418644   0.002233   0.003457  -0.061635
     2  C   -0.088073   5.481204   0.314787   0.346831   0.313197  -0.122818
     3  C    0.418644   0.314787   4.794863  -0.024102  -0.007750   0.337617
     4  H    0.002233   0.346831  -0.024102   0.519354  -0.027527   0.005315
     5  H    0.003457   0.313197  -0.007750  -0.027527   0.553640   0.005529
     6  H   -0.061635  -0.122818   0.337617   0.005315   0.005529   0.712572
          Atomic-Atomic Spin Densities.
               1          2          3          4          5          6
     1  O    0.463929  -0.017252  -0.035773   0.000430  -0.000117   0.000944
     2  C   -0.017252   0.848256   0.008634  -0.007395  -0.003784  -0.000154
     3  C   -0.035773   0.008634  -0.133414  -0.000479  -0.000945   0.009137
     4  H    0.000430  -0.007395  -0.000479  -0.039044   0.002279  -0.000091
     5  H   -0.000117  -0.003784  -0.000945   0.002279  -0.041307  -0.000091
     6  H    0.000944  -0.000154   0.009137  -0.000091  -0.000091  -0.009109
 Mulliken charges and spin densities:
               1          2
     1  O   -0.381583   0.412161
     2  C   -0.245128   0.828306
     3  C    0.165942  -0.152840
     4  H    0.177896  -0.044299
     5  H    0.159454  -0.043964
     6  H    0.123419   0.000636
 Sum of Mulliken charges =   0.00000   1.00000
 Mulliken charges and spin densities with hydrogens summed into heavy atoms:
               1          2
     1  O   -0.381583   0.412161
     2  C    0.092223   0.740043
     3  C    0.289361  -0.152204
 Electronic spatial extent (au):  <R**2>=            153.2333
 Charge=              0.0000 electrons
 Dipole moment (field-independent basis, Debye):
    X=             -3.0380    Y=              0.0609    Z=              0.0000  Tot=              3.0386
 Quadrupole moment (field-independent basis, Debye-Ang):
   XX=            -19.3675   YY=            -16.1643   ZZ=            -18.0324
   XY=              0.3090   XZ=              0.0000   YZ=              0.0000
 Traceless Quadrupole moment (field-independent basis, Debye-Ang):
   XX=             -1.5128   YY=              1.6905   ZZ=             -0.1777
   XY=              0.3090   XZ=              0.0000   YZ=              0.0000
 Octapole moment (field-independent basis, Debye-Ang**2):
  XXX=             -4.1068  YYY=             -1.0438  ZZZ=              0.0000  XYY=              0.3116
  XXY=             -0.3892  XXZ=              0.0000  XZZ=              2.4489  YZZ=              0.2266
  YYZ=              0.0000  XYZ=              0.0000
 Hexadecapole moment (field-independent basis, Debye-Ang**3):
 XXXX=           -120.6041 YYYY=            -44.3922 ZZZZ=            -16.1596 XXXY=            -13.2606
 XXXZ=              0.0000 YYYX=            -10.5938 YYYZ=              0.0000 ZZZX=              0.0000
 ZZZY=              0.0000 XXYY=            -29.4538 XXZZ=            -23.7783 YYZZ=            -11.3953
 XXYZ=              0.0000 YYXZ=              0.0000 ZZXY=             -4.2476
 N-N= 6.251707773703D+01 E-N=-4.833733870346D+02  KE= 1.522816326278D+02
 Symmetry A'   KE= 1.474376891060D+02
 Symmetry A"   KE= 4.843943521837D+00
                          Isotropic Fermi Contact Couplings
        Atom                 a.u.       MegaHertz       Gauss      10(-4) cm-1
     1  O(17)              0.07434     -45.06171     -16.07914     -15.03097
     2  C(13)              0.12255     137.76554      49.15817      45.95364
     3  C(13)             -0.04768     -53.59605     -19.12440     -17.87772
     4  H(1)              -0.01351     -60.40669     -21.55461     -20.14950
     5  H(1)              -0.01352     -60.41699     -21.55828     -20.15294
     6  H(1)              -0.00016      -0.70278      -0.25077      -0.23442
 --------------------------------------------------------
       Center         ----  Spin Dipole Couplings  ----
                      3XX-RR        3YY-RR        3ZZ-RR
 --------------------------------------------------------
     1   Atom       -0.732465     -0.743945      1.476409
     2   Atom       -0.387718     -0.394017      0.781734
     3   Atom        0.071910      0.026174     -0.098084
     4   Atom       -0.047470      0.060512     -0.013042
     5   Atom        0.054859     -0.042903     -0.011956
     6   Atom        0.002659      0.006332     -0.008991
 --------------------------------------------------------
                        XY            XZ            YZ
 --------------------------------------------------------
     1   Atom       -0.007006      0.000000      0.000000
     2   Atom       -0.004268      0.000000      0.000000
     3   Atom        0.003403      0.000000      0.000000
     4   Atom       -0.018148      0.000000      0.000000
     5   Atom       -0.036122      0.000000      0.000000
     6   Atom        0.005816      0.000000      0.000000
 --------------------------------------------------------


 ---------------------------------------------------------------------------------
              Anisotropic Spin Dipole Couplings in Principal Axis System
 ---------------------------------------------------------------------------------

       Atom             a.u.   MegaHertz   Gauss  10(-4) cm-1        Axes

              Baa    -0.7473    54.071    19.294    18.036  0.4279  0.9038  0.0000
     1 O(17)  Bbb    -0.7291    52.761    18.826    17.599  0.9038 -0.4279  0.0000
              Bcc     1.4764  -106.832   -38.120   -35.635  0.0000  0.0000  1.0000
 
              Baa    -0.3962   -53.162   -18.970   -17.733  0.4507  0.8927  0.0000
     2 C(13)  Bbb    -0.3856   -51.739   -18.462   -17.258  0.8927 -0.4507  0.0000
              Bcc     0.7817   104.901    37.431    34.991  0.0000  0.0000  1.0000
 
              Baa    -0.0981   -13.162    -4.697    -4.390  0.0000  0.0000  1.0000
     3 C(13)  Bbb     0.0259     3.478     1.241     1.160 -0.0738  0.9973  0.0000
              Bcc     0.0722     9.683     3.455     3.230  0.9973  0.0738  0.0000
 
              Baa    -0.0504   -26.912    -9.603    -8.977  0.9869  0.1614  0.0000
     4 H(1)   Bbb    -0.0130    -6.958    -2.483    -2.321  0.0000  0.0000  1.0000
              Bcc     0.0635    33.870    12.086    11.298 -0.1614  0.9869  0.0000
 
              Baa    -0.0548   -29.240   -10.433    -9.753  0.3129  0.9498  0.0000
     5 H(1)   Bbb    -0.0120    -6.379    -2.276    -2.128  0.0000  0.0000  1.0000
              Bcc     0.0668    35.619    12.710    11.881  0.9498 -0.3129  0.0000
 
              Baa    -0.0090    -4.797    -1.712    -1.600  0.0000  0.0000  1.0000
     6 H(1)   Bbb    -0.0016    -0.855    -0.305    -0.285  0.8066 -0.5911  0.0000
              Bcc     0.0106     5.653     2.017     1.886  0.5911  0.8066  0.0000
 

 ---------------------------------------------------------------------------------

 No NMR shielding tensors so no spin-rotation constants.
 Leave Link  601 at Sat Feb 16 13:48:33 2019, MaxMem=   196608000 cpu:         9.7
 (Enter /cm/shared/c3ddb/gaussian/09.d01/g09/l9999.exe)
 1\1\GINC-NODE028\FOpt\UB97D\6-31G\C2H3O1(2)\DUMINDA\16-Feb-2019\0\\#P 
 opt=calcfc ub97d/6-31g scf=xqc\\name\\0,2\O,1.3721847408,-1.0541997745
 ,-0.2446609814\C,-0.7217148711,0.016364438,0.0960442287\C,0.6894276485
 ,0.018024526,-0.0897060644\H,-1.2621919163,-0.9316058855,0.1097287262\
 H,-1.2754267012,0.9483035289,0.2254947807\H,1.1977211274,1.0031131688,
 -0.0969005518\\Version=AS64L-G09RevD.01\State=2-A"\HF=-153.0307324\S2=
 0.764045\S2-1=0.\S2A=0.750076\RMSD=3.258e-09\RMSF=3.090e-05\Dipole=-0.
 8862711,0.785271,0.1643535\Quadrupole=0.1008402,0.0457601,-0.1466003,1
 .2014116,0.0421908,-0.147441\PG=CS [SG(C2H3O1)]\\@


 HERE WE GO......
 SLIDING DOWN THE RAZOR BLADE OF LIFE......
                                 TOM LEHRER
 Job cpu time:       0 days  0 hours  9 minutes 47.9 seconds.
 File lengths (MBytes):  RWF=      5 Int=      0 D2E=      0 Chk=      1 Scr=      1
 Normal termination of Gaussian 09 at Sat Feb 16 13:48:33 2019.
