 Entering Gaussian System, Link 0=g09
 Initial command:
 /cm/shared/c3ddb/gaussian/09.d01/g09/l1.exe "/scratch/users/duminda/g09/a1678-7322568/Gau-22066.inp" -scrdir="/scratch/users/duminda/g09/a1678-7322568/"
 Entering Link 1 = /cm/shared/c3ddb/gaussian/09.d01/g09/l1.exe PID=     22067.
  
 Copyright (c) 1988,1990,1992,1993,1995,1998,2003,2009,2013,
            Gaussian, Inc.  All Rights Reserved.
  
 This is part of the Gaussian(R) 09 program.  It is based on
 the Gaussian(R) 03 system (copyright 2003, Gaussian, Inc.),
 the Gaussian(R) 98 system (copyright 1998, Gaussian, Inc.),
 the Gaussian(R) 94 system (copyright 1995, Gaussian, Inc.),
 the Gaussian 92(TM) system (copyright 1992, Gaussian, Inc.),
 the Gaussian 90(TM) system (copyright 1990, Gaussian, Inc.),
 the Gaussian 88(TM) system (copyright 1988, Gaussian, Inc.),
 the Gaussian 86(TM) system (copyright 1986, Carnegie Mellon
 University), and the Gaussian 82(TM) system (copyright 1983,
 Carnegie Mellon University). Gaussian is a federally registered
 trademark of Gaussian, Inc.
  
 This software contains proprietary and confidential information,
 including trade secrets, belonging to Gaussian, Inc.
  
 This software is provided under written license and may be
 used, copied, transmitted, or stored only in accord with that
 written license.
  
 The following legend is applicable only to US Government
 contracts under FAR:
  
                    RESTRICTED RIGHTS LEGEND
  
 Use, reproduction and disclosure by the US Government is
 subject to restrictions as set forth in subparagraphs (a)
 and (c) of the Commercial Computer Software - Restricted
 Rights clause in FAR 52.227-19.
  
 Gaussian, Inc.
 340 Quinnipiac St., Bldg. 40, Wallingford CT 06492
  
  
 ---------------------------------------------------------------
 Warning -- This program may not be used in any manner that
 competes with the business of Gaussian, Inc. or will provide
 assistance to any competitor of Gaussian, Inc.  The licensee
 of this program is prohibited from giving any competitor of
 Gaussian, Inc. access to this program.  By using this program,
 the user acknowledges that Gaussian, Inc. is engaged in the
 business of creating and licensing software in the field of
 computational chemistry and represents and warrants to the
 licensee that it is not a competitor of Gaussian, Inc. and that
 it will not use this program in any manner prohibited above.
 ---------------------------------------------------------------
  

 Cite this work as:
 Gaussian 09, Revision D.01,
 M. J. Frisch, G. W. Trucks, H. B. Schlegel, G. E. Scuseria, 
 M. A. Robb, J. R. Cheeseman, G. Scalmani, V. Barone, B. Mennucci, 
 G. A. Petersson, H. Nakatsuji, M. Caricato, X. Li, H. P. Hratchian, 
 A. F. Izmaylov, J. Bloino, G. Zheng, J. L. Sonnenberg, M. Hada, 
 M. Ehara, K. Toyota, R. Fukuda, J. Hasegawa, M. Ishida, T. Nakajima, 
 Y. Honda, O. Kitao, H. Nakai, T. Vreven, J. A. Montgomery, Jr., 
 J. E. Peralta, F. Ogliaro, M. Bearpark, J. J. Heyd, E. Brothers, 
 K. N. Kudin, V. N. Staroverov, T. Keith, R. Kobayashi, J. Normand, 
 K. Raghavachari, A. Rendell, J. C. Burant, S. S. Iyengar, J. Tomasi, 
 M. Cossi, N. Rega, J. M. Millam, M. Klene, J. E. Knox, J. B. Cross, 
 V. Bakken, C. Adamo, J. Jaramillo, R. Gomperts, R. E. Stratmann, 
 O. Yazyev, A. J. Austin, R. Cammi, C. Pomelli, J. W. Ochterski, 
 R. L. Martin, K. Morokuma, V. G. Zakrzewski, G. A. Voth, 
 P. Salvador, J. J. Dannenberg, S. Dapprich, A. D. Daniels, 
 O. Farkas, J. B. Foresman, J. V. Ortiz, J. Cioslowski, 
 and D. J. Fox, Gaussian, Inc., Wallingford CT, 2013.
 
 ******************************************
 Gaussian 09:  AS64L-G09RevD.01 24-Apr-2013
                16-Feb-2019 
 ******************************************
 %chk=check.chk
 %mem=1500mb
 %nproc=8
 Will use up to    8 processors via shared memory.
 ---------------------------------
 #P opt=calcfc ub97d/6-31g scf=xqc
 ---------------------------------
 1/10=4,14=-1,18=20,19=15,26=3,38=1/1,3;
 2/9=110,12=2,17=6,18=5,40=1/2;
 3/5=1,6=6,11=2,16=1,25=1,30=1,71=2,74=-42,116=2,140=1/1,2,3;
 4//1;
 5/5=2,8=3,13=1,38=5/2,8;
 8/6=4,10=90,11=11/1;
 11/6=1,8=1,9=11,15=111,16=1/1,2,10;
 10/6=1,13=1/2;
 6/7=2,8=2,9=2,10=2,28=1/1;
 7/10=1,18=20,25=1/1,2,3,16;
 1/10=4,14=-1,18=20,19=15,26=3/3(2);
 2/9=110/2;
 99//99;
 2/9=110/2;
 3/5=1,6=6,11=2,16=1,25=1,30=1,71=1,74=-42,116=2/1,2,3;
 4/5=5,16=3,69=1/1;
 5/5=2,8=3,13=1,38=5/2,8;
 7//1,2,3,16;
 1/14=-1,18=20,19=15,26=3/3(-5);
 2/9=110/2;
 6/7=2,8=2,9=2,10=2,19=2,28=1/1;
 99/9=1/99;
 Leave Link    1 at Sat Feb 16 13:47:02 2019, MaxMem=   196608000 cpu:         0.5
 (Enter /cm/shared/c3ddb/gaussian/09.d01/g09/l101.exe)
 ----
 name
 ----
 Symbolic Z-matrix:
 Charge =  0 Multiplicity = 2
 O                     0.98815  -0.14489   0.26621 
 C                     2.81966   1.28242   0.58752 
 C                     2.15794   0.10894   0.01836 
 H                     3.8534    1.47746   0.34831 
 H                     2.24703   1.92726   1.2386 
 H                     2.78182  -0.51785  -0.63878 
 
 NAtoms=      6 NQM=        6 NQMF=       0 NMMI=      0 NMMIF=      0
                NMic=       0 NMicF=      0.
                    Isotopes and Nuclear Properties:
 (Nuclear quadrupole moments (NQMom) in fm**2, nuclear magnetic moments (NMagM)
  in nuclear magnetons)

  Atom         1           2           3           4           5           6
 IAtWgt=          16          12          12           1           1           1
 AtmWgt=  15.9949146  12.0000000  12.0000000   1.0078250   1.0078250   1.0078250
 NucSpn=           0           0           0           1           1           1
 AtZEff=   0.0000000   0.0000000   0.0000000   0.0000000   0.0000000   0.0000000
 NQMom=    0.0000000   0.0000000   0.0000000   0.0000000   0.0000000   0.0000000
 NMagM=    0.0000000   0.0000000   0.0000000   2.7928460   2.7928460   2.7928460
 AtZNuc=   8.0000000   6.0000000   6.0000000   1.0000000   1.0000000   1.0000000
 Leave Link  101 at Sat Feb 16 13:47:02 2019, MaxMem=   196608000 cpu:         0.6
 (Enter /cm/shared/c3ddb/gaussian/09.d01/g09/l103.exe)

 GradGradGradGradGradGradGradGradGradGradGradGradGradGradGradGradGradGrad
 Berny optimization.
 Initialization pass.
                           ----------------------------
                           !    Initial Parameters    !
                           ! (Angstroms and Degrees)  !
 --------------------------                            --------------------------
 ! Name  Definition              Value          Derivative Info.                !
 --------------------------------------------------------------------------------
 ! R1    R(1,3)                  1.2224         calculate D2E/DX2 analytically  !
 ! R2    R(2,3)                  1.4625         calculate D2E/DX2 analytically  !
 ! R3    R(2,4)                  1.0788         calculate D2E/DX2 analytically  !
 ! R4    R(2,5)                  1.0806         calculate D2E/DX2 analytically  !
 ! R5    R(3,6)                  1.1018         calculate D2E/DX2 analytically  !
 ! A1    A(3,2,4)              119.4931         calculate D2E/DX2 analytically  !
 ! A2    A(3,2,5)              118.2645         calculate D2E/DX2 analytically  !
 ! A3    A(4,2,5)              122.2423         calculate D2E/DX2 analytically  !
 ! A4    A(1,3,2)              121.379          calculate D2E/DX2 analytically  !
 ! A5    A(1,3,6)              123.0024         calculate D2E/DX2 analytically  !
 ! A6    A(2,3,6)              115.6186         calculate D2E/DX2 analytically  !
 ! D1    D(4,2,3,1)           -179.9987         calculate D2E/DX2 analytically  !
 ! D2    D(4,2,3,6)              0.0014         calculate D2E/DX2 analytically  !
 ! D3    D(5,2,3,1)              0.0009         calculate D2E/DX2 analytically  !
 ! D4    D(5,2,3,6)           -179.999          calculate D2E/DX2 analytically  !
 --------------------------------------------------------------------------------
 Trust Radius=3.00D-01 FncErr=1.00D-07 GrdErr=1.00D-06
 Number of steps in this run=     25 maximum allowed number of steps=    100.
 GradGradGradGradGradGradGradGradGradGradGradGradGradGradGradGradGradGrad

 Leave Link  103 at Sat Feb 16 13:47:02 2019, MaxMem=   196608000 cpu:         0.1
 (Enter /cm/shared/c3ddb/gaussian/09.d01/g09/l202.exe)
                          Input orientation:                          
 ---------------------------------------------------------------------
 Center     Atomic      Atomic             Coordinates (Angstroms)
 Number     Number       Type             X           Y           Z
 ---------------------------------------------------------------------
      1          8           0        0.988146   -0.144893    0.266208
      2          6           0        2.819663    1.282422    0.587521
      3          6           0        2.157940    0.108940    0.018358
      4          1           0        3.853399    1.477460    0.348310
      5          1           0        2.247026    1.927265    1.238602
      6          1           0        2.781817   -0.517848   -0.638781
 ---------------------------------------------------------------------
                    Distance matrix (angstroms):
                    1          2          3          4          5
     1  O    0.000000
     2  C    2.344126   0.000000
     3  C    1.222407   1.462492   0.000000
     4  H    3.293698   1.078829   2.203701   0.000000
     5  H    2.612310   1.080575   2.191629   1.890867   0.000000
     6  H    2.043369   2.178583   1.101780   2.470606   3.128761
                    6
     6  H    0.000000
 Stoichiometry    C2H3O(2)
 Framework group  C1[X(C2H3O)]
 Deg. of freedom    12
 Full point group                 C1      NOp   1
 Largest Abelian subgroup         C1      NOp   1
 Largest concise Abelian subgroup C1      NOp   1
                         Standard orientation:                         
 ---------------------------------------------------------------------
 Center     Atomic      Atomic             Coordinates (Angstroms)
 Number     Number       Type             X           Y           Z
 ---------------------------------------------------------------------
      1          8           0        1.160804   -0.274165   -0.000002
      2          6           0       -1.181271   -0.176137    0.000001
      3          6           0        0.154368    0.419640    0.000002
      4          1           0       -2.048864    0.465075   -0.000017
      5          1           0       -1.260875   -1.253776    0.000011
      6          1           0        0.184723    1.521002    0.000008
 ---------------------------------------------------------------------
 Rotational constants (GHZ):     64.8788396     11.4215596      9.7118435
 Leave Link  202 at Sat Feb 16 13:47:02 2019, MaxMem=   196608000 cpu:         0.2
 (Enter /cm/shared/c3ddb/gaussian/09.d01/g09/l301.exe)
 Standard basis: 6-31G (6D, 7F)
 Ernie: Thresh=  0.10000D-02 Tol=  0.10000D-05 Strict=F.
 There are    33 symmetry adapted cartesian basis functions of A   symmetry.
 There are    33 symmetry adapted basis functions of A   symmetry.
    33 basis functions,    78 primitive gaussians,    33 cartesian basis functions
    12 alpha electrons       11 beta electrons
       nuclear repulsion energy        63.3917552588 Hartrees.
 IExCor= 3630 DFT=T Ex+Corr=B97D ExCW=0 ScaHFX=  0.000000
 ScaDFX=  1.000000  1.000000  1.000000  1.000000 ScalE2=  1.000000  1.000000
 IRadAn=      0 IRanWt=     -1 IRanGd=            0 ICorTp=0 IEmpDi=121
 NAtoms=    6 NActive=    6 NUniq=    6 SFac= 1.00D+00 NAtFMM=   60 NAOKFM=F Big=F
 Integral buffers will be    131072 words long.
 Raffenetti 2 integral format.
 Two-electron integral symmetry is turned on.
 R6Disp:  Grimme-D2 Dispersion energy=       -0.0022240246 Hartrees.
 Nuclear repulsion after empirical dispersion term =       63.3895312343 Hartrees.
 Leave Link  301 at Sat Feb 16 13:47:03 2019, MaxMem=   196608000 cpu:         0.5
 (Enter /cm/shared/c3ddb/gaussian/09.d01/g09/l302.exe)
 NPDir=0 NMtPBC=     1 NCelOv=     1 NCel=       1 NClECP=     1 NCelD=      1
         NCelK=      1 NCelE2=     1 NClLst=     1 CellRange=     0.0.
 One-electron integrals computed using PRISM.
 NBasis=    33 RedAO= T EigKep=  9.50D-03  NBF=    33
 NBsUse=    33 1.00D-06 EigRej= -1.00D+00 NBFU=    33
 Precomputing XC quadrature grid using
 IXCGrd= 4 IRadAn=           0 IRanWt=          -1 IRanGd=           0 AccXCQ= 0.00D+00.
 Generated NRdTot=       0 NPtTot=           0 NUsed=           0 NTot=          32
 NSgBfM=    33    33    33    33    33 MxSgAt=     6 MxSgA2=     6.
 Leave Link  302 at Sat Feb 16 13:47:03 2019, MaxMem=   196608000 cpu:         2.3
 (Enter /cm/shared/c3ddb/gaussian/09.d01/g09/l303.exe)
 DipDrv:  MaxL=1.
 Leave Link  303 at Sat Feb 16 13:47:03 2019, MaxMem=   196608000 cpu:         0.6
 (Enter /cm/shared/c3ddb/gaussian/09.d01/g09/l401.exe)
 ExpMin= 1.61D-01 ExpMax= 5.48D+03 ExpMxC= 8.25D+02 IAcc=1 IRadAn=         1 AccDes= 0.00D+00
 Harris functional with IExCor= 3630 and IRadAn=       1 diagonalized for initial guess.
 HarFok:  IExCor= 3630 AccDes= 0.00D+00 IRadAn=         1 IDoV= 1 UseB2=F ITyADJ=14
 ICtDFT=  3500011 ScaDFX=  1.000000  1.000000  1.000000  1.000000
 FoFCou: FMM=F IPFlag=           0 FMFlag=      100000 FMFlg1=           0
         NFxFlg=           0 DoJE=T BraDBF=F KetDBF=T FulRan=T
         wScrn=  0.000000 ICntrl=     500 IOpCl=  0 I1Cent=   200000004 NGrid=           0
         NMat0=    1 NMatS0=      1 NMatT0=    0 NMatD0=    1 NMtDS0=    0 NMtDT0=    0
 Petite list used in FoFCou.
 Harris En= -153.051871892364    
 JPrj=0 DoOrth=F DoCkMO=F.
 Initial guess <Sx>= 0.0000 <Sy>= 0.0000 <Sz>= 0.5000 <S**2>= 0.7500 S= 0.5000
 Leave Link  401 at Sat Feb 16 13:47:04 2019, MaxMem=   196608000 cpu:         6.5
 (Enter /cm/shared/c3ddb/gaussian/09.d01/g09/l502.exe)
 UHF open shell SCF:
 Using DIIS extrapolation, IDIIS=  1040.
 Integral symmetry usage will be decided dynamically.
 Keep J ints in memory in canonical form, NReq=1027578.
 IVT=        9731 IEndB=        9731 NGot=   196608000 MDV=   196440629
 LenX=   196440629 LenY=   196439099
 Requested convergence on RMS density matrix=1.00D-08 within  64 cycles.
 Requested convergence on MAX density matrix=1.00D-06.
 Requested convergence on             energy=1.00D-06.
 No special actions if energy rises.
 FoFCou: FMM=F IPFlag=           0 FMFlag=           0 FMFlg1=           0
         NFxFlg=           0 DoJE=F BraDBF=F KetDBF=F FulRan=T
         wScrn=  0.000000 ICntrl=     600 IOpCl=  0 I1Cent=           0 NGrid=           0
         NMat0=    1 NMatS0=    561 NMatT0=    0 NMatD0=    1 NMtDS0=    0 NMtDT0=    0
 Symmetry not used in FoFCou.
 Integral accuracy reduced to 1.0D-05 until final iterations.

 Cycle   1  Pass 0  IDiag  1:
 E= -152.947938502009    
 DIIS: error= 5.42D-02 at cycle   1 NSaved=   1.
 NSaved= 1 IEnMin= 1 EnMin= -152.947938502009     IErMin= 1 ErrMin= 5.42D-02
 ErrMax= 5.42D-02  0.00D+00 EMaxC= 1.00D-01 BMatC= 3.23D-01 BMatP= 3.23D-01
 IDIUse=3 WtCom= 4.58D-01 WtEn= 5.42D-01
 Coeff-Com:  0.100D+01
 Coeff-En:   0.100D+01
 Coeff:      0.100D+01
 Gap=     0.181 Goal=   None    Shift=    0.000
 Gap=    -0.047 Goal=   None    Shift=    0.000
 GapD=   -0.047 DampG=0.250 DampE=0.500 DampFc=0.2500 IDamp=-1.
 Damping current iteration by 2.50D-01
 RMSDP=4.17D-02 MaxDP=4.83D-01              OVMax= 9.43D-01

 Cycle   2  Pass 0  IDiag  1:
 E= -152.945927644213     Delta-E=        0.002010857797 Rises=F Damp=T
 DIIS: error= 2.25D-02 at cycle   2 NSaved=   2.
 NSaved= 2 IEnMin= 1 EnMin= -152.947938502009     IErMin= 2 ErrMin= 2.25D-02
 ErrMax= 2.25D-02  0.00D+00 EMaxC= 1.00D-01 BMatC= 5.62D-02 BMatP= 3.23D-01
 IDIUse=3 WtCom= 7.75D-01 WtEn= 2.25D-01
 Coeff-Com:  0.130D+00 0.870D+00
 Coeff-En:   0.513D+00 0.487D+00
 Coeff:      0.216D+00 0.784D+00
 Gap=     0.158 Goal=   None    Shift=    0.000
 Gap=    -0.071 Goal=   None    Shift=    0.000
 RMSDP=1.20D-02 MaxDP=9.93D-02 DE= 2.01D-03 OVMax= 9.65D-01

 Cycle   3  Pass 0  IDiag  1:
 E= -152.987839553198     Delta-E=       -0.041911908985 Rises=F Damp=F
 DIIS: error= 4.03D-02 at cycle   3 NSaved=   3.
 NSaved= 3 IEnMin= 3 EnMin= -152.987839553198     IErMin= 2 ErrMin= 2.25D-02
 ErrMax= 4.03D-02  0.00D+00 EMaxC= 1.00D-01 BMatC= 1.18D-01 BMatP= 5.62D-02
 IDIUse=2 WtCom= 0.00D+00 WtEn= 1.00D+00
 EnCoef did     2 forward-backward iterations
 Coeff-En:   0.102D+00 0.177D+00 0.721D+00
 Coeff:      0.102D+00 0.177D+00 0.721D+00
 Gap=     0.202 Goal=   None    Shift=    0.000
 Gap=    -0.001 Goal=   None    Shift=    0.000
 RMSDP=2.71D-02 MaxDP=2.87D-01 DE=-4.19D-02 OVMax= 9.57D-01

 Cycle   4  Pass 0  IDiag  1:
 E= -152.628548603249     Delta-E=        0.359290949949 Rises=F Damp=F
 DIIS: error= 1.45D-01 at cycle   4 NSaved=   4.
 NSaved= 4 IEnMin= 3 EnMin= -152.987839553198     IErMin= 2 ErrMin= 2.25D-02
 ErrMax= 1.45D-01  0.00D+00 EMaxC= 1.00D-01 BMatC= 1.26D+00 BMatP= 5.62D-02
 IDIUse=2 WtCom= 0.00D+00 WtEn= 1.00D+00
 EnCoef did     1 forward-backward iterations
 Coeff-En:   0.133D+00 0.000D+00 0.723D+00 0.144D+00
 Coeff:      0.133D+00 0.000D+00 0.723D+00 0.144D+00
 Gap=     0.186 Goal=   None    Shift=    0.000
 Gap=    -0.016 Goal=   None    Shift=    0.000
 RMSDP=2.55D-02 MaxDP=2.69D-01 DE= 3.59D-01 OVMax= 9.98D-01

 Cycle   5  Pass 0  IDiag  1:
 E= -153.015790735299     Delta-E=       -0.387242132050 Rises=F Damp=F
 DIIS: error= 2.21D-02 at cycle   5 NSaved=   5.
 NSaved= 5 IEnMin= 5 EnMin= -153.015790735299     IErMin= 5 ErrMin= 2.21D-02
 ErrMax= 2.21D-02  0.00D+00 EMaxC= 1.00D-01 BMatC= 3.77D-02 BMatP= 5.62D-02
 IDIUse=3 WtCom= 7.79D-01 WtEn= 2.21D-01
 Coeff-Com:  0.482D-01 0.216D-01 0.345D+00 0.587D-02 0.580D+00
 Coeff-En:   0.000D+00 0.000D+00 0.253D+00 0.000D+00 0.747D+00
 Coeff:      0.375D-01 0.168D-01 0.324D+00 0.457D-02 0.617D+00
 Gap=     0.189 Goal=   None    Shift=    0.000
 Gap=     0.044 Goal=   None    Shift=    0.000
 RMSDP=3.21D-03 MaxDP=3.52D-02 DE=-3.87D-01 OVMax= 6.67D-02

 Cycle   6  Pass 0  IDiag  1:
 E= -153.026028523251     Delta-E=       -0.010237787951 Rises=F Damp=F
 DIIS: error= 4.17D-03 at cycle   6 NSaved=   6.
 NSaved= 6 IEnMin= 6 EnMin= -153.026028523251     IErMin= 6 ErrMin= 4.17D-03
 ErrMax= 4.17D-03  0.00D+00 EMaxC= 1.00D-01 BMatC= 1.39D-03 BMatP= 3.77D-02
 IDIUse=3 WtCom= 9.58D-01 WtEn= 4.17D-02
 Coeff-Com: -0.432D-01 0.792D-01 0.167D-01-0.531D-02 0.708D-01 0.882D+00
 Coeff-En:   0.000D+00 0.000D+00 0.000D+00 0.000D+00 0.000D+00 0.100D+01
 Coeff:     -0.414D-01 0.759D-01 0.160D-01-0.509D-02 0.679D-01 0.887D+00
 Gap=     0.189 Goal=   None    Shift=    0.000
 Gap=     0.044 Goal=   None    Shift=    0.000
 RMSDP=4.62D-04 MaxDP=5.54D-03 DE=-1.02D-02 OVMax= 9.73D-03

 Cycle   7  Pass 0  IDiag  1:
 E= -153.026317606025     Delta-E=       -0.000289082774 Rises=F Damp=F
 DIIS: error= 1.54D-03 at cycle   7 NSaved=   7.
 NSaved= 7 IEnMin= 7 EnMin= -153.026317606025     IErMin= 7 ErrMin= 1.54D-03
 ErrMax= 1.54D-03  0.00D+00 EMaxC= 1.00D-01 BMatC= 1.50D-04 BMatP= 1.39D-03
 IDIUse=3 WtCom= 9.85D-01 WtEn= 1.54D-02
 Coeff-Com: -0.283D-01 0.158D-01-0.389D-01-0.118D-02-0.129D-01 0.371D+00
 Coeff-Com:  0.694D+00
 Coeff-En:   0.000D+00 0.000D+00 0.000D+00 0.000D+00 0.000D+00 0.000D+00
 Coeff-En:   0.100D+01
 Coeff:     -0.279D-01 0.156D-01-0.383D-01-0.116D-02-0.127D-01 0.366D+00
 Coeff:      0.699D+00
 Gap=     0.188 Goal=   None    Shift=    0.000
 Gap=     0.043 Goal=   None    Shift=    0.000
 RMSDP=3.04D-04 MaxDP=2.95D-03 DE=-2.89D-04 OVMax= 5.49D-03

 Cycle   8  Pass 0  IDiag  1:
 E= -153.026376700727     Delta-E=       -0.000059094701 Rises=F Damp=F
 DIIS: error= 5.66D-04 at cycle   8 NSaved=   8.
 NSaved= 8 IEnMin= 8 EnMin= -153.026376700727     IErMin= 8 ErrMin= 5.66D-04
 ErrMax= 5.66D-04  0.00D+00 EMaxC= 1.00D-01 BMatC= 1.68D-05 BMatP= 1.50D-04
 IDIUse=3 WtCom= 9.94D-01 WtEn= 5.66D-03
 Coeff-Com: -0.601D-02 0.429D-02-0.162D-01-0.873D-03-0.227D-01-0.612D-01
 Coeff-Com:  0.153D+00 0.950D+00
 Coeff-En:   0.000D+00 0.000D+00 0.000D+00 0.000D+00 0.000D+00 0.000D+00
 Coeff-En:   0.000D+00 0.100D+01
 Coeff:     -0.597D-02 0.427D-02-0.161D-01-0.868D-03-0.225D-01-0.608D-01
 Coeff:      0.152D+00 0.950D+00
 Gap=     0.188 Goal=   None    Shift=    0.000
 Gap=     0.043 Goal=   None    Shift=    0.000
 RMSDP=9.48D-05 MaxDP=1.31D-03 DE=-5.91D-05 OVMax= 2.63D-03

 Cycle   9  Pass 0  IDiag  1:
 E= -153.026382671680     Delta-E=       -0.000005970953 Rises=F Damp=F
 DIIS: error= 1.09D-04 at cycle   9 NSaved=   9.
 NSaved= 9 IEnMin= 9 EnMin= -153.026382671680     IErMin= 9 ErrMin= 1.09D-04
 ErrMax= 1.09D-04  0.00D+00 EMaxC= 1.00D-01 BMatC= 7.24D-07 BMatP= 1.68D-05
 IDIUse=3 WtCom= 9.99D-01 WtEn= 1.09D-03
 Coeff-Com:  0.243D-02-0.343D-02 0.542D-03 0.107D-03-0.219D-02-0.444D-01
 Coeff-Com: -0.412D-01 0.186D+00 0.902D+00
 Coeff-En:   0.000D+00 0.000D+00 0.000D+00 0.000D+00 0.000D+00 0.000D+00
 Coeff-En:   0.000D+00 0.000D+00 0.100D+01
 Coeff:      0.243D-02-0.343D-02 0.541D-03 0.107D-03-0.219D-02-0.444D-01
 Coeff:     -0.411D-01 0.186D+00 0.902D+00
 Gap=     0.188 Goal=   None    Shift=    0.000
 Gap=     0.043 Goal=   None    Shift=    0.000
 RMSDP=2.28D-05 MaxDP=2.69D-04 DE=-5.97D-06 OVMax= 4.90D-04

 Cycle  10  Pass 0  IDiag  1:
 E= -153.026382799844     Delta-E=       -0.000000128164 Rises=F Damp=F
 DIIS: error= 1.22D-04 at cycle  10 NSaved=  10.
 NSaved=10 IEnMin=10 EnMin= -153.026382799844     IErMin= 9 ErrMin= 1.09D-04
 ErrMax= 1.22D-04  0.00D+00 EMaxC= 1.00D-01 BMatC= 7.40D-07 BMatP= 7.24D-07
 IDIUse=3 WtCom= 9.99D-01 WtEn= 1.09D-03
 Coeff-Com:  0.857D-03-0.125D-02 0.759D-04 0.779D-04-0.542D-03 0.818D-02
 Coeff-Com:  0.133D-01-0.263D-01-0.146D+00 0.115D+01
 Coeff-En:   0.000D+00 0.000D+00 0.000D+00 0.000D+00 0.000D+00 0.000D+00
 Coeff-En:   0.000D+00 0.000D+00 0.000D+00 0.100D+01
 Coeff:      0.856D-03-0.124D-02 0.758D-04 0.778D-04-0.541D-03 0.818D-02
 Coeff:      0.133D-01-0.262D-01-0.146D+00 0.115D+01
 Gap=     0.188 Goal=   None    Shift=    0.000
 Gap=     0.043 Goal=   None    Shift=    0.000
 RMSDP=1.71D-05 MaxDP=1.99D-04 DE=-1.28D-07 OVMax= 3.06D-04

 Cycle  11  Pass 0  IDiag  1:
 E= -153.026382997126     Delta-E=       -0.000000197281 Rises=F Damp=F
 DIIS: error= 1.85D-05 at cycle  11 NSaved=  11.
 NSaved=11 IEnMin=11 EnMin= -153.026382997126     IErMin=11 ErrMin= 1.85D-05
 ErrMax= 1.85D-05  0.00D+00 EMaxC= 1.00D-01 BMatC= 1.67D-08 BMatP= 7.24D-07
 IDIUse=1 WtCom= 1.00D+00 WtEn= 0.00D+00
 Coeff-Com: -0.147D-03 0.260D-03-0.409D-04-0.222D-04 0.121D-04 0.556D-02
 Coeff-Com:  0.991D-02-0.208D-01-0.147D+00 0.112D+00 0.104D+01
 Coeff:     -0.147D-03 0.260D-03-0.409D-04-0.222D-04 0.121D-04 0.556D-02
 Coeff:      0.991D-02-0.208D-01-0.147D+00 0.112D+00 0.104D+01
 Gap=     0.188 Goal=   None    Shift=    0.000
 Gap=     0.043 Goal=   None    Shift=    0.000
 RMSDP=4.24D-06 MaxDP=5.52D-05 DE=-1.97D-07 OVMax= 8.75D-05

 Initial convergence to 1.0D-05 achieved.  Increase integral accuracy.
 Cycle  12  Pass 1  IDiag  1:
 E= -153.026397024467     Delta-E=       -0.000014027341 Rises=F Damp=F
 DIIS: error= 7.79D-06 at cycle   1 NSaved=   1.
 NSaved= 1 IEnMin= 1 EnMin= -153.026397024467     IErMin= 1 ErrMin= 7.79D-06
 ErrMax= 7.79D-06  0.00D+00 EMaxC= 1.00D-01 BMatC= 1.52D-08 BMatP= 1.52D-08
 IDIUse=1 WtCom= 1.00D+00 WtEn= 0.00D+00
 Coeff-Com:  0.100D+01
 Coeff:      0.100D+01
 Gap=     0.188 Goal=   None    Shift=    0.000
 Gap=     0.043 Goal=   None    Shift=    0.000
 RMSDP=4.24D-06 MaxDP=5.52D-05 DE=-1.40D-05 OVMax= 7.31D-05

 Cycle  13  Pass 1  IDiag  1:
 E= -153.026397027550     Delta-E=       -0.000000003083 Rises=F Damp=F
 DIIS: error= 1.16D-05 at cycle   2 NSaved=   2.
 NSaved= 2 IEnMin= 2 EnMin= -153.026397027550     IErMin= 1 ErrMin= 7.79D-06
 ErrMax= 1.16D-05  0.00D+00 EMaxC= 1.00D-01 BMatC= 1.00D-08 BMatP= 1.52D-08
 IDIUse=1 WtCom= 1.00D+00 WtEn= 0.00D+00
 Coeff-Com:  0.420D+00 0.580D+00
 Coeff:      0.420D+00 0.580D+00
 Gap=     0.188 Goal=   None    Shift=    0.000
 Gap=     0.043 Goal=   None    Shift=    0.000
 RMSDP=3.31D-06 MaxDP=3.29D-05 DE=-3.08D-09 OVMax= 6.33D-05

 Cycle  14  Pass 1  IDiag  1:
 E= -153.026397025885     Delta-E=        0.000000001665 Rises=F Damp=F
 DIIS: error= 1.46D-05 at cycle   3 NSaved=   3.
 NSaved= 3 IEnMin= 2 EnMin= -153.026397027550     IErMin= 1 ErrMin= 7.79D-06
 ErrMax= 1.46D-05  0.00D+00 EMaxC= 1.00D-01 BMatC= 1.73D-08 BMatP= 1.00D-08
 IDIUse=1 WtCom= 1.00D+00 WtEn= 0.00D+00
 Coeff-Com:  0.438D-01 0.549D+00 0.407D+00
 Coeff:      0.438D-01 0.549D+00 0.407D+00
 Gap=     0.188 Goal=   None    Shift=    0.000
 Gap=     0.043 Goal=   None    Shift=    0.000
 RMSDP=1.99D-06 MaxDP=2.14D-05 DE= 1.66D-09 OVMax= 4.48D-05

 Cycle  15  Pass 1  IDiag  1:
 E= -153.026397029697     Delta-E=       -0.000000003812 Rises=F Damp=F
 DIIS: error= 1.31D-06 at cycle   4 NSaved=   4.
 NSaved= 4 IEnMin= 4 EnMin= -153.026397029697     IErMin= 4 ErrMin= 1.31D-06
 ErrMax= 1.31D-06  0.00D+00 EMaxC= 1.00D-01 BMatC= 1.77D-10 BMatP= 1.00D-08
 IDIUse=1 WtCom= 1.00D+00 WtEn= 0.00D+00
 Coeff-Com: -0.480D-02 0.182D+00 0.182D+00 0.641D+00
 Coeff:     -0.480D-02 0.182D+00 0.182D+00 0.641D+00
 Gap=     0.188 Goal=   None    Shift=    0.000
 Gap=     0.043 Goal=   None    Shift=    0.000
 RMSDP=2.34D-07 MaxDP=1.90D-06 DE=-3.81D-09 OVMax= 3.04D-06

 Cycle  16  Pass 1  IDiag  1:
 E= -153.026397029744     Delta-E=       -0.000000000048 Rises=F Damp=F
 DIIS: error= 2.63D-07 at cycle   5 NSaved=   5.
 NSaved= 5 IEnMin= 5 EnMin= -153.026397029744     IErMin= 5 ErrMin= 2.63D-07
 ErrMax= 2.63D-07  0.00D+00 EMaxC= 1.00D-01 BMatC= 9.54D-12 BMatP= 1.77D-10
 IDIUse=1 WtCom= 1.00D+00 WtEn= 0.00D+00
 Coeff-Com: -0.545D-02 0.647D-02 0.250D-01 0.231D+00 0.743D+00
 Coeff:     -0.545D-02 0.647D-02 0.250D-01 0.231D+00 0.743D+00
 Gap=     0.188 Goal=   None    Shift=    0.000
 Gap=     0.043 Goal=   None    Shift=    0.000
 RMSDP=9.36D-08 MaxDP=7.72D-07 DE=-4.77D-11 OVMax= 1.23D-06

 Cycle  17  Pass 1  IDiag  1:
 E= -153.026397029748     Delta-E=       -0.000000000003 Rises=F Damp=F
 DIIS: error= 8.85D-08 at cycle   6 NSaved=   6.
 NSaved= 6 IEnMin= 6 EnMin= -153.026397029748     IErMin= 6 ErrMin= 8.85D-08
 ErrMax= 8.85D-08  0.00D+00 EMaxC= 1.00D-01 BMatC= 9.48D-13 BMatP= 9.54D-12
 IDIUse=1 WtCom= 1.00D+00 WtEn= 0.00D+00
 Coeff-Com: -0.841D-03-0.215D-01-0.186D-01-0.284D-01 0.172D+00 0.897D+00
 Coeff:     -0.841D-03-0.215D-01-0.186D-01-0.284D-01 0.172D+00 0.897D+00
 Gap=     0.188 Goal=   None    Shift=    0.000
 Gap=     0.043 Goal=   None    Shift=    0.000
 RMSDP=2.88D-08 MaxDP=3.37D-07 DE=-3.24D-12 OVMax= 7.15D-07

 Cycle  18  Pass 1  IDiag  1:
 E= -153.026397029748     Delta-E=        0.000000000000 Rises=F Damp=F
 DIIS: error= 7.01D-08 at cycle   7 NSaved=   7.
 NSaved= 7 IEnMin= 7 EnMin= -153.026397029748     IErMin= 7 ErrMin= 7.01D-08
 ErrMax= 7.01D-08  0.00D+00 EMaxC= 1.00D-01 BMatC= 5.17D-13 BMatP= 9.48D-13
 IDIUse=1 WtCom= 1.00D+00 WtEn= 0.00D+00
 Coeff-Com:  0.501D-03-0.126D-01-0.134D-01-0.508D-01-0.428D-02 0.535D+00
 Coeff-Com:  0.546D+00
 Coeff:      0.501D-03-0.126D-01-0.134D-01-0.508D-01-0.428D-02 0.535D+00
 Coeff:      0.546D+00
 Gap=     0.188 Goal=   None    Shift=    0.000
 Gap=     0.043 Goal=   None    Shift=    0.000
 RMSDP=1.53D-08 MaxDP=2.07D-07 DE=-2.27D-13 OVMax= 3.52D-07

 Cycle  19  Pass 1  IDiag  1:
 E= -153.026397029748     Delta-E=        0.000000000000 Rises=F Damp=F
 DIIS: error= 2.73D-08 at cycle   8 NSaved=   8.
 NSaved= 8 IEnMin= 8 EnMin= -153.026397029748     IErMin= 8 ErrMin= 2.73D-08
 ErrMax= 2.73D-08  0.00D+00 EMaxC= 1.00D-01 BMatC= 2.93D-14 BMatP= 5.17D-13
 IDIUse=1 WtCom= 1.00D+00 WtEn= 0.00D+00
 Coeff-Com:  0.145D-03 0.455D-03 0.601D-03-0.580D-02-0.254D-01-0.446D-01
 Coeff-Com:  0.137D+00 0.937D+00
 Coeff:      0.145D-03 0.455D-03 0.601D-03-0.580D-02-0.254D-01-0.446D-01
 Coeff:      0.137D+00 0.937D+00
 Gap=     0.188 Goal=   None    Shift=    0.000
 Gap=     0.043 Goal=   None    Shift=    0.000
 RMSDP=4.85D-09 MaxDP=5.47D-08 DE=-3.98D-13 OVMax= 1.08D-07

 SCF Done:  E(UB97D) =  -153.026397030     A.U. after   19 cycles
            NFock= 19  Conv=0.48D-08     -V/T= 2.0038
 <Sx>= 0.0000 <Sy>= 0.0000 <Sz>= 0.5000 <S**2>= 0.7600 S= 0.5050
 <L.S>= 0.000000000000E+00
 KE= 1.524445739509D+02 PE=-4.851875843137D+02 EE= 1.163270820988D+02
 Annihilation of the first spin contaminant:
 S**2 before annihilation     0.7600,   after     0.7501
 Leave Link  502 at Sat Feb 16 13:47:19 2019, MaxMem=   196608000 cpu:        86.0
 (Enter /cm/shared/c3ddb/gaussian/09.d01/g09/l508.exe)
 QCSCF skips out because SCF is already converged.
 Leave Link  508 at Sat Feb 16 13:47:19 2019, MaxMem=   196608000 cpu:         0.0
 (Enter /cm/shared/c3ddb/gaussian/09.d01/g09/l801.exe)
 DoSCS=F DFT=T ScalE2(SS,OS)=  1.000000  1.000000
 Range of M.O.s used for correlation:     1    33
 NBasis=    33 NAE=    12 NBE=    11 NFC=     0 NFV=     0
 NROrb=     33 NOA=    12 NOB=    11 NVA=    21 NVB=    22

 **** Warning!!: The smallest beta delta epsilon is  0.43384210D-01

 Leave Link  801 at Sat Feb 16 13:47:19 2019, MaxMem=   196608000 cpu:         0.1
 (Enter /cm/shared/c3ddb/gaussian/09.d01/g09/l1101.exe)
 Using compressed storage, NAtomX=     6.
 Will process      7 centers per pass.
 R6Disp: Adding Grimme-D2 dispersion energy 1st derivatives to the gradient.
 Leave Link 1101 at Sat Feb 16 13:47:19 2019, MaxMem=   196608000 cpu:         2.0
 (Enter /cm/shared/c3ddb/gaussian/09.d01/g09/l1102.exe)
 Symmetrizing basis deriv contribution to polar:
 IMax=3 JMax=2 DiffMx= 0.00D+00
 Leave Link 1102 at Sat Feb 16 13:47:20 2019, MaxMem=   196608000 cpu:         0.4
 (Enter /cm/shared/c3ddb/gaussian/09.d01/g09/l1110.exe)
 Forming Gx(P) for the SCF density, NAtomX=     6.
 Integral derivatives from FoFJK, PRISM(SPDF).
 Do as many integral derivatives as possible in FoFJK.
 G2DrvN: MDV=     196607848.
 G2DrvN: will do     7 centers at a time, making    1 passes.
 Calling FoFCou, ICntrl=  3507 FMM=F I1Cent=   0 AccDes= 0.00D+00.
 FoFJK:  IHMeth= 1 ICntrl=    3507 DoSepK=F KAlg= 0 I1Cent=   0 FoldK=F
 IRaf=         0 NMat=   1 IRICut=       1 DoRegI=T DoRafI=F ISym2E= 0.
 FoFCou: FMM=F IPFlag=           0 FMFlag=      100000 FMFlg1=           0
         NFxFlg=           0 DoJE=F BraDBF=F KetDBF=F FulRan=T
         wScrn=  0.000000 ICntrl=    3507 IOpCl=  0 I1Cent=           0 NGrid=           0
         NMat0=    1 NMatS0=      1 NMatT0=    0 NMatD0=    1 NMtDS0=    0 NMtDT0=    0
 Symmetry not used in FoFCou.
 End of G2Drv F.D. properties file   721 does not exist.
 End of G2Drv F.D. properties file   722 does not exist.
 End of G2Drv F.D. properties file   788 does not exist.
 Leave Link 1110 at Sat Feb 16 13:47:22 2019, MaxMem=   196608000 cpu:        10.9
 (Enter /cm/shared/c3ddb/gaussian/09.d01/g09/l1002.exe)
 Minotr:  UHF open shell wavefunction.
          IDoAtm=111111
          Direct CPHF calculation.
          Differentiating once with respect to nuclear coordinates.
          Requested convergence is 1.0D-08 RMS, and 1.0D-07 maximum.
          Secondary convergence is 1.0D-12 RMS, and 1.0D-12 maximum.
          NewPWx=T KeepS1=F KeepF1=F KeepIn=T MapXYZ=F SortEE=F KeepMc=T.
          MDV=     196607870 using IRadAn=       2.
 Generate precomputed XC quadrature information.
 Keep J ints in memory in canonical form, NReq=1018085.
 FoFCou: FMM=F IPFlag=           0 FMFlag=           0 FMFlg1=           0
         NFxFlg=           0 DoJE=F BraDBF=F KetDBF=F FulRan=T
         wScrn=  0.000000 ICntrl=     600 IOpCl=  0 I1Cent=           0 NGrid=           0
         NMat0=    1 NMatS0=    561 NMatT0=    0 NMatD0=    1 NMtDS0=    0 NMtDT0=    0
 Symmetry not used in FoFCou.
          Solving linear equations simultaneously, MaxMat=       0.
          There are    21 degrees of freedom in the 1st order CPHF.  IDoFFX=6 NUNeed=     0.
     15 vectors produced by pass  0 Test12= 2.35D-15 4.76D-09 XBig12= 2.90D-01 3.16D-01.
 AX will form    15 AO Fock derivatives at one time.
     15 vectors produced by pass  1 Test12= 2.35D-15 4.76D-09 XBig12= 2.28D-01 2.33D-01.
     15 vectors produced by pass  2 Test12= 2.35D-15 4.76D-09 XBig12= 1.78D-03 1.29D-02.
     15 vectors produced by pass  3 Test12= 2.35D-15 4.76D-09 XBig12= 2.12D-05 1.10D-03.
     15 vectors produced by pass  4 Test12= 2.35D-15 4.76D-09 XBig12= 6.32D-08 4.96D-05.
     13 vectors produced by pass  5 Test12= 2.35D-15 4.76D-09 XBig12= 9.96D-11 2.91D-06.
      4 vectors produced by pass  6 Test12= 2.35D-15 4.76D-09 XBig12= 1.96D-13 1.25D-07.
      1 vectors produced by pass  7 Test12= 2.35D-15 4.76D-09 XBig12= 8.54D-16 7.61D-09.
 InvSVY:  IOpt=1 It=  1 EMax= 1.33D-15
 Solved reduced A of dimension    93 with    15 vectors.
 End of Minotr F.D. properties file   721 does not exist.
 End of Minotr F.D. properties file   722 does not exist.
 End of Minotr F.D. properties file   788 does not exist.
 Leave Link 1002 at Sat Feb 16 13:47:28 2019, MaxMem=   196608000 cpu:        42.1
 (Enter /cm/shared/c3ddb/gaussian/09.d01/g09/l601.exe)
 Copying SCF densities to generalized density rwf, IOpCl= 1 IROHF=0.

 **********************************************************************

            Population analysis using the SCF density.

 **********************************************************************

 Orbital symmetries:
 Alpha Orbitals:
       Occupied  (A) (A) (A) (A) (A) (A) (A) (A) (A) (A) (A) (A)
       Virtual   (A) (A) (A) (A) (A) (A) (A) (A) (A) (A) (A) (A)
                 (A) (A) (A) (A) (A) (A) (A) (A) (A)
 Beta  Orbitals:
       Occupied  (A) (A) (A) (A) (A) (A) (A) (A) (A) (A) (A)
       Virtual   (A) (A) (A) (A) (A) (A) (A) (A) (A) (A) (A) (A)
                 (A) (A) (A) (A) (A) (A) (A) (A) (A) (A)
 The electronic state is 2-A.
 Alpha  occ. eigenvalues --  -18.77528  -9.99868  -9.95216  -0.98854  -0.69318
 Alpha  occ. eigenvalues --   -0.53020  -0.44828  -0.40140  -0.37102  -0.36778
 Alpha  occ. eigenvalues --   -0.22658  -0.21751
 Alpha virt. eigenvalues --   -0.02902   0.08793   0.10226   0.14352   0.23346
 Alpha virt. eigenvalues --    0.25736   0.48245   0.52019   0.55282   0.58032
 Alpha virt. eigenvalues --    0.59823   0.64704   0.78040   0.83668   0.87154
 Alpha virt. eigenvalues --    0.88214   0.91696   0.98869   1.06439   1.16049
 Alpha virt. eigenvalues --    1.66696
  Beta  occ. eigenvalues --  -18.77075  -9.99930  -9.94878  -0.97530  -0.66483
  Beta  occ. eigenvalues --   -0.52203  -0.43813  -0.39076  -0.35833  -0.34883
  Beta  occ. eigenvalues --   -0.20550
  Beta virt. eigenvalues --   -0.16212  -0.00360   0.09619   0.11060   0.15006
  Beta virt. eigenvalues --    0.23668   0.26341   0.49504   0.52847   0.56411
  Beta virt. eigenvalues --    0.58064   0.59923   0.64863   0.78743   0.84013
  Beta virt. eigenvalues --    0.88457   0.88820   0.94010   0.99583   1.06964
  Beta virt. eigenvalues --    1.16013   1.67821
          Condensed to atoms (all electrons):
               1          2          3          4          5          6
     1  O    8.058401  -0.098927   0.457618   0.003986   0.003537  -0.062617
     2  C   -0.098927   5.521261   0.307537   0.308621   0.348141  -0.130002
     3  C    0.457618   0.307537   4.767563  -0.009791  -0.025500   0.328514
     4  H    0.003986   0.308621  -0.009791   0.559771  -0.025462   0.008209
     5  H    0.003537   0.348141  -0.025500  -0.025462   0.518000   0.005371
     6  H   -0.062617  -0.130002   0.328514   0.008209   0.005371   0.736536
          Atomic-Atomic Spin Densities.
               1          2          3          4          5          6
     1  O    0.362883  -0.018566  -0.031767  -0.000120   0.000667   0.000845
     2  C   -0.018566   0.934053   0.003520  -0.005455  -0.008590  -0.000928
     3  C   -0.031767   0.003520  -0.102596  -0.000318  -0.000383   0.009821
     4  H   -0.000120  -0.005455  -0.000318  -0.043675   0.002460  -0.000026
     5  H    0.000667  -0.008590  -0.000383   0.002460  -0.041942  -0.000067
     6  H    0.000845  -0.000928   0.009821  -0.000026  -0.000067  -0.010906
 Mulliken charges and spin densities:
               1          2
     1  O   -0.361998   0.313942
     2  C   -0.256630   0.904033
     3  C    0.174059  -0.121724
     4  H    0.154666  -0.047135
     5  H    0.175914  -0.047856
     6  H    0.113990  -0.001261
 Sum of Mulliken charges =   0.00000   1.00000
 Mulliken charges and spin densities with hydrogens summed into heavy atoms:
               1          2
     1  O   -0.361998   0.313942
     2  C    0.073949   0.809043
     3  C    0.288048  -0.122985
 APT charges:
               1
     1  O   -0.230275
     2  C   -0.616319
     3  C   -0.293104
     4  H    0.444805
     5  H    0.375049
     6  H    0.319844
 Sum of APT charges =   0.00000
 APT charges with hydrogens summed into heavy atoms:
               1
     1  O   -0.230275
     2  C    0.203535
     3  C    0.026740
 Electronic spatial extent (au):  <R**2>=            150.8017
 Charge=              0.0000 electrons
 Dipole moment (field-independent basis, Debye):
    X=             -2.6881    Y=              0.9096    Z=              0.0000  Tot=              2.8378
 Quadrupole moment (field-independent basis, Debye-Ang):
   XX=            -19.1252   YY=            -16.5767   ZZ=            -17.9314
   XY=              1.0825   XZ=              0.0000   YZ=              0.0000
 Traceless Quadrupole moment (field-independent basis, Debye-Ang):
   XX=             -1.2474   YY=              1.3011   ZZ=             -0.0536
   XY=              1.0825   XZ=              0.0000   YZ=              0.0000
 Octapole moment (field-independent basis, Debye-Ang**2):
  XXX=             -2.9563  YYY=             -1.3957  ZZZ=              0.0000  XYY=             -0.0790
  XXY=              0.9884  XXZ=              0.0000  XZZ=              2.4770  YZZ=             -0.3967
  YYZ=              0.0000  XYZ=              0.0000
 Hexadecapole moment (field-independent basis, Debye-Ang**3):
 XXXX=           -128.0383 YYYY=            -40.0874 ZZZZ=            -15.9959 XXXY=             -2.6285
 XXXZ=              0.0001 YYYX=              0.9753 YYYZ=              0.0000 ZZZX=              0.0000
 ZZZY=              0.0000 XXYY=            -27.0319 XXZZ=            -24.6655 YYZZ=            -10.0617
 XXYZ=             -0.0001 YYXZ=              0.0000 ZZXY=             -0.5667
 N-N= 6.338953123426D+01 E-N=-4.851875844606D+02  KE= 1.524445739509D+02
  Exact polarizability:   0.000   0.000   0.000   0.000   0.000   0.000
 Approx polarizability:  66.046  -7.938  37.326   0.000   0.000  12.678
                          Isotropic Fermi Contact Couplings
        Atom                 a.u.       MegaHertz       Gauss      10(-4) cm-1
     1  O(17)              0.05879     -35.63652     -12.71600     -11.88706
     2  C(13)              0.13589     152.76674      54.51097      50.95750
     3  C(13)             -0.04213     -47.35906     -16.89889     -15.79728
     4  H(1)              -0.01429     -63.88235     -22.79481     -21.30886
     5  H(1)              -0.01448     -64.74314     -23.10196     -21.59599
     6  H(1)              -0.00074      -3.30385      -1.17890      -1.10205
 --------------------------------------------------------
       Center         ----  Spin Dipole Couplings  ----
                      3XX-RR        3YY-RR        3ZZ-RR
 --------------------------------------------------------
     1   Atom       -0.577063     -0.576189      1.153252
     2   Atom       -0.423157     -0.426370      0.849528
     3   Atom        0.054290      0.019311     -0.073602
     4   Atom        0.026935     -0.014715     -0.012221
     5   Atom       -0.056279      0.069459     -0.013180
     6   Atom        0.004598      0.004107     -0.008705
 --------------------------------------------------------
                        XY            XZ            YZ
 --------------------------------------------------------
     1   Atom       -0.007301      0.000021      0.000004
     2   Atom       -0.002678     -0.000013      0.000016
     3   Atom       -0.010385      0.000000      0.000000
     4   Atom       -0.063778      0.000001     -0.000001
     5   Atom        0.011361     -0.000001     -0.000001
     6   Atom        0.009067      0.000000      0.000000
 --------------------------------------------------------


 ---------------------------------------------------------------------------------
              Anisotropic Spin Dipole Couplings in Principal Axis System
 ---------------------------------------------------------------------------------

       Atom             a.u.   MegaHertz   Gauss  10(-4) cm-1        Axes

              Baa    -0.5839    42.253    15.077    14.094  0.7279  0.6857  0.0000
     1 O(17)  Bbb    -0.5693    41.195    14.699    13.741 -0.6857  0.7279  0.0000
              Bcc     1.1533   -83.448   -29.776   -27.835  0.0000  0.0000  1.0000
 
              Baa    -0.4279   -57.418   -20.488   -19.153  0.4928  0.8702  0.0000
     2 C(13)  Bbb    -0.4216   -56.580   -20.189   -18.873  0.8702 -0.4928  0.0000
              Bcc     0.8495   113.998    40.677    38.026  0.0000  0.0000  1.0000
 
              Baa    -0.0736    -9.877    -3.524    -3.294  0.0000  0.0000  1.0000
     3 C(13)  Bbb     0.0165     2.209     0.788     0.737  0.2647  0.9643  0.0000
              Bcc     0.0571     7.668     2.736     2.558  0.9643 -0.2647  0.0000
 
              Baa    -0.0610   -32.537   -11.610   -10.853  0.5872  0.8094  0.0000
     4 H(1)   Bbb    -0.0122    -6.520    -2.327    -2.175  0.0000  0.0000  1.0000
              Bcc     0.0732    39.057    13.937    13.028  0.8094 -0.5872  0.0000
 
              Baa    -0.0573   -30.571   -10.909   -10.197  0.9960 -0.0893  0.0000
     5 H(1)   Bbb    -0.0132    -7.032    -2.509    -2.346  0.0000  0.0000  1.0000
              Bcc     0.0705    37.603    13.418    12.543  0.0893  0.9960  0.0000
 
              Baa    -0.0087    -4.644    -1.657    -1.549  0.0000  0.0000  1.0000
     6 H(1)   Bbb    -0.0047    -2.517    -0.898    -0.840 -0.6975  0.7166  0.0000
              Bcc     0.0134     7.162     2.555     2.389  0.7166  0.6975  0.0000
 

 ---------------------------------------------------------------------------------

 No NMR shielding tensors so no spin-rotation constants.
 Leave Link  601 at Sat Feb 16 13:47:29 2019, MaxMem=   196608000 cpu:         5.8
 (Enter /cm/shared/c3ddb/gaussian/09.d01/g09/l701.exe)
 Compute integral second derivatives.
 ... and contract with generalized density number  0.
 R6Disp: Adding Grimme-D2 dispersion energy 2nd derivatives to the Hessian.
 Leave Link  701 at Sat Feb 16 13:47:30 2019, MaxMem=   196608000 cpu:         2.8
 (Enter /cm/shared/c3ddb/gaussian/09.d01/g09/l702.exe)
 L702 exits ... SP integral derivatives will be done elsewhere.
 Leave Link  702 at Sat Feb 16 13:47:30 2019, MaxMem=   196608000 cpu:         0.1
 (Enter /cm/shared/c3ddb/gaussian/09.d01/g09/l703.exe)
 Compute integral second derivatives, UseDBF=F ICtDFT=           0.
 Integral derivatives from FoFJK, PRISM(SPDF).
 Calling FoFJK, ICntrl=    100547 FMM=F ISym2X=0 I1Cent= 0 IOpClX= 0 NMat=1 NMatS=1 NMatT=0.
 FoFJK:  IHMeth= 1 ICntrl=  100547 DoSepK=F KAlg= 0 I1Cent=   0 FoldK=F
 IRaf=         0 NMat=   1 IRICut=       1 DoRegI=T DoRafI=F ISym2E= 0.
 FoFCou: FMM=F IPFlag=           0 FMFlag=      100000 FMFlg1=         800
         NFxFlg=           0 DoJE=F BraDBF=F KetDBF=F FulRan=T
         wScrn=  0.000000 ICntrl=  100547 IOpCl=  0 I1Cent=           0 NGrid=           0
         NMat0=    1 NMatS0=      1 NMatT0=    0 NMatD0=    1 NMtDS0=    0 NMtDT0=    0
 Symmetry not used in FoFCou.
 Leave Link  703 at Sat Feb 16 13:47:33 2019, MaxMem=   196608000 cpu:        12.8
 (Enter /cm/shared/c3ddb/gaussian/09.d01/g09/l716.exe)
 Dipole        =-1.05758609D+00 3.57848101D-01 1.96460708D-06
 Polarizability= 0.00000000D+00 0.00000000D+00 0.00000000D+00
                 0.00000000D+00 0.00000000D+00 0.00000000D+00
 ***** Axes restored to original set *****
 -------------------------------------------------------------------
 Center     Atomic                   Forces (Hartrees/Bohr)
 Number     Number              X              Y              Z
 -------------------------------------------------------------------
      1        8          -0.061886815   -0.019156610    0.009167213
      2        6          -0.006795535   -0.019368532   -0.010885235
      3        6           0.059593814    0.033188587    0.001326685
      4        1           0.008540528    0.004781476    0.000207526
      5        1          -0.001678272    0.005707450    0.004537420
      6        1           0.002226281   -0.005152372   -0.004353609
 -------------------------------------------------------------------
 Cartesian Forces:  Max     0.061886815 RMS     0.023187337
 Force constants in Cartesian coordinates: 
                1             2             3             4             5 
      1  0.735008D+00
      2  0.170490D+00  0.742164D-01
      3 -0.151009D+00 -0.503905D-02  0.431869D-01
      4 -0.658868D-01 -0.570812D-01 -0.842331D-02  0.617740D+00
      5 -0.666386D-01 -0.869456D-02  0.458276D-02  0.372392D-01  0.394810D+00
      6 -0.150058D-01  0.112924D-02  0.258110D-01 -0.172465D+00  0.210622D+00
      7 -0.631446D+00 -0.127181D+00  0.132110D+00 -0.867963D-01  0.780484D-02
      8 -0.981821D-01 -0.822156D-01 -0.503891D-02 -0.275850D-01 -0.170671D+00
      9  0.152083D+00  0.543900D-02 -0.746005D-01 -0.120875D-01 -0.737646D-01
     10 -0.144919D-02 -0.436254D-02 -0.211620D-02 -0.336921D+00 -0.601857D-01
     11 -0.378339D-02 -0.516829D-02 -0.288848D-02 -0.565554D-01 -0.536450D-01
     12 -0.171706D-02 -0.267888D-02 -0.214736D-03  0.771275D-01 -0.439793D-02
     13  0.953086D-03  0.250557D-02 -0.337070D-04 -0.138636D+00  0.942853D-01
     14 -0.463747D-03  0.212705D-02  0.433016D-02  0.911047D-01 -0.152465D+00
     15 -0.207915D-02  0.325716D-02 -0.921575D-03  0.105685D+00 -0.125431D+00
     16 -0.371785D-01  0.156284D-01  0.294721D-01  0.105006D-01 -0.125050D-01
     17 -0.142253D-02  0.197350D-01  0.405351D-02  0.128776D-01 -0.933574D-02
     18  0.177277D-01 -0.210747D-02  0.673896D-02  0.101632D-01 -0.116107D-01
                6             7             8             9            10 
      6  0.276879D+00
      7  0.122875D-01  0.824219D+00
      8 -0.609768D-01  0.615134D-01  0.397809D+00
      9 -0.114109D+00 -0.211315D+00  0.167645D+00  0.313968D+00
     10  0.746268D-01 -0.516706D-02  0.659138D-02  0.961558D-02  0.347615D+00
     11 -0.571003D-02 -0.232408D-01  0.703996D-02  0.713172D-02  0.650440D-01
     12 -0.465838D-01 -0.109326D-01 -0.364887D-02  0.103160D-01 -0.789429D-01
     13  0.107876D+00  0.952226D-02 -0.118040D-01 -0.880039D-02 -0.451202D-02
     14 -0.124282D+00  0.181506D-01 -0.903143D-02 -0.180610D-01 -0.676719D-02
     15 -0.144408D+00  0.118322D-01 -0.723685D-02 -0.159187D-02 -0.163311D-02
     16 -0.731939D-02 -0.110332D+00  0.694664D-01  0.705039D-01  0.434229D-03
     17 -0.207821D-01  0.629526D-01 -0.142931D+00 -0.883896D-01 -0.319931D-03
     18  0.241157D-02  0.660178D-01 -0.907430D-01 -0.133983D+00 -0.155014D-02
               11            12            13            14            15 
     11  0.452705D-01
     12  0.411394D-02  0.365338D-01
     13  0.163401D-01  0.142827D-01  0.133348D+00
     14  0.729664D-02  0.480736D-02 -0.986601D-01  0.154195D+00
     15 -0.354263D-02  0.201748D-02 -0.112952D+00  0.135779D+00  0.143164D+00
     16  0.219540D-02  0.182374D-03 -0.675338D-03 -0.336426D-02 -0.852465D-03
     17 -0.793803D-03  0.180439D-02 -0.266687D-02 -0.212249D-02 -0.282531D-02
     18  0.895477D-03 -0.206880D-02 -0.371999D-03 -0.257341D-02  0.174058D-02
               16            17            18 
     16  0.137251D+00
     17 -0.714209D-01  0.135448D+00
     18 -0.919865D-01  0.106139D+00  0.125160D+00
 FormGI is forming the generalized inverse of G from B-inverse, IUseBI=4.
 Force constants in internal coordinates: 
                1             2             3             4             5 
      1  0.804847D+00
      2  0.994881D-01  0.288533D+00
      3  0.204561D-02 -0.854244D-03  0.378190D+00
      4  0.197873D-02  0.648353D-03 -0.290590D-02  0.376498D+00
      5  0.318284D-01  0.617998D-02  0.143612D-02 -0.173912D-03  0.312541D+00
      6  0.656075D-02  0.638025D-02  0.465152D-02 -0.106281D-01  0.413575D-03
      7 -0.380159D-02  0.843810D-02 -0.101003D-01  0.651465D-02  0.141555D-02
      8 -0.275915D-02 -0.148184D-01  0.544874D-02  0.411346D-02 -0.182913D-02
      9  0.372053D-01  0.163358D-01  0.772391D-02 -0.628218D-02 -0.130754D-01
     10  0.871336D-02 -0.255882D-01 -0.392596D-02  0.347882D-03  0.252982D-02
     11 -0.459187D-01  0.925247D-02 -0.379795D-02  0.593430D-02  0.105456D-01
     12  0.000000D+00  0.000000D+00  0.000000D+00  0.000000D+00  0.000000D+00
     13  0.000000D+00  0.000000D+00  0.000000D+00  0.000000D+00  0.000000D+00
     14  0.000000D+00  0.000000D+00  0.000000D+00  0.000000D+00  0.000000D+00
     15  0.000000D+00  0.000000D+00  0.000000D+00  0.000000D+00  0.000000D+00
                6             7             8             9            10 
      6  0.744873D-01
      7 -0.401414D-01  0.723906D-01
      8 -0.343459D-01 -0.322492D-01  0.665951D-01
      9  0.203842D-01 -0.202313D-01 -0.152819D-03  0.154558D+00
     10 -0.460251D-02  0.246366D-02  0.213885D-02 -0.848198D-01  0.121823D+00
     11 -0.157817D-01  0.177677D-01 -0.198603D-02 -0.697385D-01 -0.370029D-01
     12  0.000000D+00  0.000000D+00  0.000000D+00  0.000000D+00  0.000000D+00
     13  0.000000D+00  0.000000D+00  0.000000D+00  0.000000D+00  0.000000D+00
     14  0.000000D+00  0.000000D+00  0.000000D+00  0.000000D+00  0.000000D+00
     15  0.000000D+00  0.000000D+00  0.000000D+00  0.000000D+00  0.000000D+00
               11            12            13            14            15 
     11  0.106741D+00
     12  0.000000D+00  0.234324D-01
     13  0.000000D+00 -0.986863D-02  0.270079D-01
     14  0.000000D+00  0.128975D-01 -0.228266D-01  0.285601D-01
     15  0.000000D+00 -0.204036D-01  0.140499D-01 -0.716402D-02  0.272895D-01
 Leave Link  716 at Sat Feb 16 13:47:33 2019, MaxMem=   196608000 cpu:         0.4
 (Enter /cm/shared/c3ddb/gaussian/09.d01/g09/l103.exe)

 GradGradGradGradGradGradGradGradGradGradGradGradGradGradGradGradGradGrad
 Berny optimization.
 Red2BG is reusing G-inverse.
 Internal  Forces:  Max     0.065061006 RMS     0.017642261
 Search for a local minimum.
 Step number   1 out of a maximum of   25
 All quantities printed in internal units (Hartrees-Bohrs-Radians)
 RMS Force = .17642D-01 SwitMx=.10000D-02 MixMth= 1
 Mixed Optimization -- RFO/linear search
 Second derivative matrix not updated -- analytic derivatives used.
 The second derivative matrix:
                          R1        R2        R3        R4        R5
           R1           0.80485
           R2           0.09949   0.28853
           R3           0.00205  -0.00085   0.37819
           R4           0.00198   0.00065  -0.00291   0.37650
           R5           0.03183   0.00618   0.00144  -0.00017   0.31254
           A1           0.00656   0.00638   0.00465  -0.01063   0.00041
           A2          -0.00380   0.00844  -0.01010   0.00651   0.00142
           A3          -0.00276  -0.01482   0.00545   0.00411  -0.00183
           A4           0.03721   0.01634   0.00772  -0.00628  -0.01308
           A5           0.00871  -0.02559  -0.00393   0.00035   0.00253
           A6          -0.04592   0.00925  -0.00380   0.00593   0.01055
           D1           0.00000   0.00000   0.00000   0.00000   0.00000
           D2           0.00000   0.00000   0.00000   0.00000   0.00000
           D3           0.00000   0.00000   0.00000   0.00000   0.00000
           D4           0.00000   0.00000   0.00000   0.00000   0.00000
                          A1        A2        A3        A4        A5
           A1           0.07449
           A2          -0.04014   0.07239
           A3          -0.03435  -0.03225   0.06660
           A4           0.02038  -0.02023  -0.00015   0.15456
           A5          -0.00460   0.00246   0.00214  -0.08482   0.12182
           A6          -0.01578   0.01777  -0.00199  -0.06974  -0.03700
           D1           0.00000   0.00000   0.00000   0.00000   0.00000
           D2           0.00000   0.00000   0.00000   0.00000   0.00000
           D3           0.00000   0.00000   0.00000   0.00000   0.00000
           D4           0.00000   0.00000   0.00000   0.00000   0.00000
                          A6        D1        D2        D3        D4
           A6           0.10674
           D1           0.00000   0.02343
           D2           0.00000  -0.00987   0.02701
           D3           0.00000   0.01290  -0.02283   0.02856
           D4           0.00000  -0.02040   0.01405  -0.00716   0.02729
 ITU=  0
     Eigenvalues ---    0.00944   0.02652   0.07033   0.09539   0.10019
     Eigenvalues ---    0.14569   0.22948   0.28316   0.31511   0.37465
     Eigenvalues ---    0.38265   0.83089
 RFO step:  Lambda=-7.71189717D-03 EMin= 9.43878111D-03
 Linear search not attempted -- first point.
 Iteration  1 RMS(Cart)=  0.02406938 RMS(Int)=  0.00053453
 Iteration  2 RMS(Cart)=  0.00063131 RMS(Int)=  0.00000024
 Iteration  3 RMS(Cart)=  0.00000027 RMS(Int)=  0.00000000
 ITry= 1 IFail=0 DXMaxC= 5.51D-02 DCOld= 1.00D+10 DXMaxT= 3.00D-01 DXLimC= 3.00D+00 Rises=F
 Variable       Old X    -DE/DX   Delta X   Delta X   Delta X     New X
                                 (Linear)    (Quad)   (Total)
    R1        2.31001   0.06506   0.00000   0.08825   0.08825   2.39827
    R2        2.76371  -0.00948   0.00000  -0.07175  -0.07175   2.69196
    R3        2.03869   0.00900   0.00000   0.02289   0.02289   2.06158
    R4        2.04199   0.00703   0.00000   0.01922   0.01922   2.06121
    R5        2.08206   0.00679   0.00000   0.01417   0.01417   2.09623
    A1        2.08555   0.00348   0.00000   0.02662   0.02662   2.11216
    A2        2.06411   0.00088   0.00000   0.02179   0.02179   2.08589
    A3        2.13353  -0.00436   0.00000  -0.04840  -0.04840   2.08513
    A4        2.11846   0.00924   0.00000   0.02773   0.02773   2.14619
    A5        2.14680  -0.00680   0.00000  -0.04718  -0.04718   2.09961
    A6        2.01792  -0.00244   0.00000   0.01946   0.01946   2.03738
    D1       -3.14157   0.00000   0.00000  -0.00001  -0.00001  -3.14158
    D2        0.00002   0.00000   0.00000  -0.00002  -0.00002   0.00001
    D3        0.00002   0.00000   0.00000  -0.00001  -0.00001   0.00001
    D4       -3.14158   0.00000   0.00000  -0.00001  -0.00001  -3.14159
         Item               Value     Threshold  Converged?
 Maximum Force            0.065061     0.000450     NO 
 RMS     Force            0.017642     0.000300     NO 
 Maximum Displacement     0.055051     0.001800     NO 
 RMS     Displacement     0.024168     0.001200     NO 
 Predicted change in Energy=-3.936657D-03
 Lowest energy point so far.  Saving SCF results.
 GradGradGradGradGradGradGradGradGradGradGradGradGradGradGradGradGradGrad

 Leave Link  103 at Sat Feb 16 13:47:36 2019, MaxMem=   196608000 cpu:        16.1
 (Enter /cm/shared/c3ddb/gaussian/09.d01/g09/l202.exe)
                          Input orientation:                          
 ---------------------------------------------------------------------
 Center     Atomic      Atomic             Coordinates (Angstroms)
 Number     Number       Type             X           Y           Z
 ---------------------------------------------------------------------
      1          8           0        0.959014   -0.165410    0.262610
      2          6           0        2.816592    1.268693    0.579173
      3          6           0        2.171213    0.125921    0.025258
      4          1           0        3.860957    1.489024    0.353553
      5          1           0        2.258294    1.933915    1.239103
      6          1           0        2.781922   -0.518795   -0.639479
 ---------------------------------------------------------------------
                    Distance matrix (angstroms):
                    1          2          3          4          5
     1  O    0.000000
     2  C    2.368008   0.000000
     3  C    1.269109   1.424523   0.000000
     4  H    3.341661   1.090939   2.195691   0.000000
     5  H    2.654963   1.090745   2.179414   1.884318   0.000000
     6  H    2.064374   2.163662   1.109279   2.486316   3.133536
                    6
     6  H    0.000000
 Stoichiometry    C2H3O(2)
 Framework group  C1[X(C2H3O)]
 Deg. of freedom    12
 Full point group                 C1      NOp   1
 RotChk:  IX=0 Diff= 1.74D-02
 Largest Abelian subgroup         C1      NOp   1
 Largest concise Abelian subgroup C1      NOp   1
                         Standard orientation:                         
 ---------------------------------------------------------------------
 Center     Atomic      Atomic             Coordinates (Angstroms)
 Number     Number       Type             X           Y           Z
 ---------------------------------------------------------------------
      1          8           0        1.190992   -0.263173   -0.000001
      2          6           0       -1.175551   -0.179889    0.000000
      3          6           0        0.118586    0.415489    0.000001
      4          1           0       -2.077023    0.434517   -0.000006
      5          1           0       -1.266969   -1.266797    0.000004
      6          1           0        0.157846    1.524072    0.000003
 ---------------------------------------------------------------------
 Rotational constants (GHZ):     65.7655296     11.1759970      9.5526485
 Leave Link  202 at Sat Feb 16 13:47:36 2019, MaxMem=   196608000 cpu:         0.3
 (Enter /cm/shared/c3ddb/gaussian/09.d01/g09/l301.exe)
 Standard basis: 6-31G (6D, 7F)
 Ernie: Thresh=  0.10000D-02 Tol=  0.10000D-05 Strict=F.
 There are    33 symmetry adapted cartesian basis functions of A   symmetry.
 There are    33 symmetry adapted basis functions of A   symmetry.
    33 basis functions,    78 primitive gaussians,    33 cartesian basis functions
    12 alpha electrons       11 beta electrons
       nuclear repulsion energy        62.7426971197 Hartrees.
 IExCor= 3630 DFT=T Ex+Corr=B97D ExCW=0 ScaHFX=  0.000000
 ScaDFX=  1.000000  1.000000  1.000000  1.000000 ScalE2=  1.000000  1.000000
 IRadAn=      0 IRanWt=     -1 IRanGd=            0 ICorTp=0 IEmpDi=121
 NAtoms=    6 NActive=    6 NUniq=    6 SFac= 1.00D+00 NAtFMM=   60 NAOKFM=F Big=F
 Integral buffers will be    131072 words long.
 Raffenetti 2 integral format.
 Two-electron integral symmetry is turned on.
 R6Disp:  Grimme-D2 Dispersion energy=       -0.0021589663 Hartrees.
 Nuclear repulsion after empirical dispersion term =       62.7405381534 Hartrees.
 Leave Link  301 at Sat Feb 16 13:47:36 2019, MaxMem=   196608000 cpu:         0.3
 (Enter /cm/shared/c3ddb/gaussian/09.d01/g09/l302.exe)
 NPDir=0 NMtPBC=     1 NCelOv=     1 NCel=       1 NClECP=     1 NCelD=      1
         NCelK=      1 NCelE2=     1 NClLst=     1 CellRange=     0.0.
 One-electron integrals computed using PRISM.
 NBasis=    33 RedAO= T EigKep=  9.16D-03  NBF=    33
 NBsUse=    33 1.00D-06 EigRej= -1.00D+00 NBFU=    33
 Precomputing XC quadrature grid using
 IXCGrd= 4 IRadAn=           0 IRanWt=          -1 IRanGd=           0 AccXCQ= 0.00D+00.
 Generated NRdTot=       0 NPtTot=           0 NUsed=           0 NTot=          32
 NSgBfM=    33    33    33    33    33 MxSgAt=     6 MxSgA2=     6.
 Leave Link  302 at Sat Feb 16 13:47:37 2019, MaxMem=   196608000 cpu:         2.3
 (Enter /cm/shared/c3ddb/gaussian/09.d01/g09/l303.exe)
 DipDrv:  MaxL=1.
 Leave Link  303 at Sat Feb 16 13:47:37 2019, MaxMem=   196608000 cpu:         0.8
 (Enter /cm/shared/c3ddb/gaussian/09.d01/g09/l401.exe)
 Initial guess from the checkpoint file:  "check.chk"
 B after Tr=     0.000000    0.000000    0.000000
         Rot=    0.999978    0.000000    0.000000   -0.006597 Ang=   0.76 deg.
 Guess basis will be translated and rotated to current coordinates.
 JPrj=2 DoOrth=T DoCkMO=T.
 Initial guess <Sx>= 0.0000 <Sy>= 0.0000 <Sz>= 0.5000 <S**2>= 0.7601 S= 0.5050
 Generating alternative initial guess.
 ExpMin= 1.61D-01 ExpMax= 5.48D+03 ExpMxC= 8.25D+02 IAcc=1 IRadAn=         1 AccDes= 0.00D+00
 Harris functional with IExCor= 3630 and IRadAn=       1 diagonalized for initial guess.
 HarFok:  IExCor= 3630 AccDes= 0.00D+00 IRadAn=         1 IDoV= 1 UseB2=F ITyADJ=14
 ICtDFT=  3500011 ScaDFX=  1.000000  1.000000  1.000000  1.000000
 FoFCou: FMM=F IPFlag=           0 FMFlag=      100000 FMFlg1=           0
         NFxFlg=           0 DoJE=T BraDBF=F KetDBF=T FulRan=T
         wScrn=  0.000000 ICntrl=     500 IOpCl=  0 I1Cent=   200000004 NGrid=           0
         NMat0=    1 NMatS0=      1 NMatT0=    0 NMatD0=    1 NMtDS0=    0 NMtDT0=    0
 Petite list used in FoFCou.
 Harris En= -153.054026566430    
 Leave Link  401 at Sat Feb 16 13:47:40 2019, MaxMem=   196608000 cpu:        12.8
 (Enter /cm/shared/c3ddb/gaussian/09.d01/g09/l502.exe)
 UHF open shell SCF:
 Using DIIS extrapolation, IDIIS=  1040.
 Integral symmetry usage will be decided dynamically.
 Keep J ints in memory in canonical form, NReq=1027578.
 IVT=        9731 IEndB=        9731 NGot=   196608000 MDV=   196440629
 LenX=   196440629 LenY=   196439099
 Requested convergence on RMS density matrix=1.00D-08 within  64 cycles.
 Requested convergence on MAX density matrix=1.00D-06.
 Requested convergence on             energy=1.00D-06.
 No special actions if energy rises.
 FoFCou: FMM=F IPFlag=           0 FMFlag=           0 FMFlg1=           0
         NFxFlg=           0 DoJE=F BraDBF=F KetDBF=F FulRan=T
         wScrn=  0.000000 ICntrl=     600 IOpCl=  0 I1Cent=           0 NGrid=           0
         NMat0=    1 NMatS0=    561 NMatT0=    0 NMatD0=    1 NMtDS0=    0 NMtDT0=    0
 Symmetry not used in FoFCou.
 Integral accuracy reduced to 1.0D-05 until final iterations.

 Cycle   1  Pass 0  IDiag  1:
 E= -153.027661231698    
 DIIS: error= 5.80D-03 at cycle   1 NSaved=   1.
 NSaved= 1 IEnMin= 1 EnMin= -153.027661231698     IErMin= 1 ErrMin= 5.80D-03
 ErrMax= 5.80D-03  0.00D+00 EMaxC= 1.00D-01 BMatC= 6.27D-03 BMatP= 6.27D-03
 IDIUse=3 WtCom= 9.42D-01 WtEn= 5.80D-02
 Coeff-Com:  0.100D+01
 Coeff-En:   0.100D+01
 Coeff:      0.100D+01
 Gap=     0.616 Goal=   None    Shift=    0.000
 Gap=     0.644 Goal=   None    Shift=    0.000
 GapD=    0.616 DampG=2.000 DampE=1.000 DampFc=2.0000 IDamp=-1.
 RMSDP=2.83D-03 MaxDP=2.87D-02              OVMax= 6.49D-02

 Cycle   2  Pass 0  IDiag  1:
 E= -153.029117404035     Delta-E=       -0.001456172337 Rises=F Damp=F
 DIIS: error= 9.93D-03 at cycle   2 NSaved=   2.
 NSaved= 2 IEnMin= 2 EnMin= -153.029117404035     IErMin= 1 ErrMin= 5.80D-03
 ErrMax= 9.93D-03  0.00D+00 EMaxC= 1.00D-01 BMatC= 6.92D-03 BMatP= 6.27D-03
 IDIUse=3 WtCom= 9.12D-02 WtEn= 9.09D-01
 Coeff-Com:  0.518D+00 0.482D+00
 Coeff-En:   0.109D+00 0.891D+00
 Coeff:      0.146D+00 0.854D+00
 Gap=     0.201 Goal=   None    Shift=    0.000
 Gap=     0.050 Goal=   None    Shift=    0.000
 RMSDP=3.92D-03 MaxDP=4.07D-02 DE=-1.46D-03 OVMax= 8.48D-02

 Cycle   3  Pass 0  IDiag  1:
 E= -153.020826744427     Delta-E=        0.008290659607 Rises=F Damp=F
 DIIS: error= 2.28D-02 at cycle   3 NSaved=   3.
 NSaved= 3 IEnMin= 2 EnMin= -153.029117404035     IErMin= 1 ErrMin= 5.80D-03
 ErrMax= 2.28D-02  0.00D+00 EMaxC= 1.00D-01 BMatC= 4.31D-02 BMatP= 6.27D-03
 IDIUse=2 WtCom= 0.00D+00 WtEn= 1.00D+00
 Coeff-En:   0.000D+00 0.791D+00 0.209D+00
 Coeff:      0.000D+00 0.791D+00 0.209D+00
 Gap=     0.199 Goal=   None    Shift=    0.000
 Gap=     0.040 Goal=   None    Shift=    0.000
 RMSDP=1.99D-03 MaxDP=2.38D-02 DE= 8.29D-03 OVMax= 4.98D-02

 Cycle   4  Pass 0  IDiag  1:
 E= -153.029710015162     Delta-E=       -0.008883270735 Rises=F Damp=F
 DIIS: error= 6.91D-03 at cycle   4 NSaved=   4.
 NSaved= 4 IEnMin= 4 EnMin= -153.029710015162     IErMin= 1 ErrMin= 5.80D-03
 ErrMax= 6.91D-03  0.00D+00 EMaxC= 1.00D-01 BMatC= 3.95D-03 BMatP= 6.27D-03
 IDIUse=3 WtCom= 9.31D-01 WtEn= 6.91D-02
 Coeff-Com:  0.725D-03 0.278D+00-0.155D+00 0.876D+00
 Coeff-En:   0.000D+00 0.414D+00 0.000D+00 0.586D+00
 Coeff:      0.675D-03 0.287D+00-0.144D+00 0.856D+00
 Gap=     0.186 Goal=   None    Shift=    0.000
 Gap=     0.036 Goal=   None    Shift=    0.000
 RMSDP=9.17D-04 MaxDP=1.07D-02 DE=-8.88D-03 OVMax= 2.25D-02

 Cycle   5  Pass 0  IDiag  1:
 E= -153.030593413540     Delta-E=       -0.000883398378 Rises=F Damp=F
 DIIS: error= 5.63D-04 at cycle   5 NSaved=   5.
 NSaved= 5 IEnMin= 5 EnMin= -153.030593413540     IErMin= 5 ErrMin= 5.63D-04
 ErrMax= 5.63D-04  0.00D+00 EMaxC= 1.00D-01 BMatC= 1.28D-05 BMatP= 3.95D-03
 IDIUse=3 WtCom= 9.94D-01 WtEn= 5.63D-03
 Coeff-Com: -0.248D-02 0.205D-02-0.102D+00 0.372D+00 0.731D+00
 Coeff-En:   0.000D+00 0.000D+00 0.000D+00 0.000D+00 0.100D+01
 Coeff:     -0.246D-02 0.203D-02-0.102D+00 0.370D+00 0.732D+00
 Gap=     0.186 Goal=   None    Shift=    0.000
 Gap=     0.037 Goal=   None    Shift=    0.000
 RMSDP=1.18D-04 MaxDP=1.29D-03 DE=-8.83D-04 OVMax= 2.71D-03

 Cycle   6  Pass 0  IDiag  1:
 E= -153.030597675478     Delta-E=       -0.000004261938 Rises=F Damp=F
 DIIS: error= 1.93D-04 at cycle   6 NSaved=   6.
 NSaved= 6 IEnMin= 6 EnMin= -153.030597675478     IErMin= 6 ErrMin= 1.93D-04
 ErrMax= 1.93D-04  0.00D+00 EMaxC= 1.00D-01 BMatC= 2.60D-06 BMatP= 1.28D-05
 IDIUse=3 WtCom= 9.98D-01 WtEn= 1.93D-03
 Coeff-Com: -0.179D-02-0.686D-01-0.162D-01-0.279D-01 0.400D+00 0.714D+00
 Coeff-En:   0.000D+00 0.000D+00 0.000D+00 0.000D+00 0.000D+00 0.100D+01
 Coeff:     -0.179D-02-0.685D-01-0.162D-01-0.279D-01 0.400D+00 0.715D+00
 Gap=     0.186 Goal=   None    Shift=    0.000
 Gap=     0.036 Goal=   None    Shift=    0.000
 RMSDP=3.75D-05 MaxDP=4.90D-04 DE=-4.26D-06 OVMax= 1.14D-03

 Cycle   7  Pass 0  IDiag  1:
 E= -153.030598746527     Delta-E=       -0.000001071049 Rises=F Damp=F
 DIIS: error= 6.18D-05 at cycle   7 NSaved=   7.
 NSaved= 7 IEnMin= 7 EnMin= -153.030598746527     IErMin= 7 ErrMin= 6.18D-05
 ErrMax= 6.18D-05  0.00D+00 EMaxC= 1.00D-01 BMatC= 3.93D-07 BMatP= 2.60D-06
 IDIUse=1 WtCom= 1.00D+00 WtEn= 0.00D+00
 Coeff-Com: -0.137D-03-0.344D-01 0.169D-01-0.106D+00 0.485D-01 0.371D+00
 Coeff-Com:  0.705D+00
 Coeff:     -0.137D-03-0.344D-01 0.169D-01-0.106D+00 0.485D-01 0.371D+00
 Coeff:      0.705D+00
 Gap=     0.186 Goal=   None    Shift=    0.000
 Gap=     0.036 Goal=   None    Shift=    0.000
 RMSDP=1.63D-05 MaxDP=2.20D-04 DE=-1.07D-06 OVMax= 4.13D-04

 Cycle   8  Pass 0  IDiag  1:
 E= -153.030598880704     Delta-E=       -0.000000134177 Rises=F Damp=F
 DIIS: error= 1.36D-05 at cycle   8 NSaved=   8.
 NSaved= 8 IEnMin= 8 EnMin= -153.030598880704     IErMin= 8 ErrMin= 1.36D-05
 ErrMax= 1.36D-05  0.00D+00 EMaxC= 1.00D-01 BMatC= 1.21D-08 BMatP= 3.93D-07
 IDIUse=1 WtCom= 1.00D+00 WtEn= 0.00D+00
 Coeff-Com:  0.607D-04 0.157D-02 0.215D-02-0.468D-02-0.204D-01 0.179D-03
 Coeff-Com:  0.464D-01 0.975D+00
 Coeff:      0.607D-04 0.157D-02 0.215D-02-0.468D-02-0.204D-01 0.179D-03
 Coeff:      0.464D-01 0.975D+00
 Gap=     0.186 Goal=   None    Shift=    0.000
 Gap=     0.036 Goal=   None    Shift=    0.000
 RMSDP=3.16D-06 MaxDP=2.35D-05 DE=-1.34D-07 OVMax= 5.30D-05

 Initial convergence to 1.0D-05 achieved.  Increase integral accuracy.
 Cycle   9  Pass 1  IDiag  1:
 E= -153.030614094294     Delta-E=       -0.000015213590 Rises=F Damp=F
 DIIS: error= 9.14D-06 at cycle   1 NSaved=   1.
 NSaved= 1 IEnMin= 1 EnMin= -153.030614094294     IErMin= 1 ErrMin= 9.14D-06
 ErrMax= 9.14D-06  0.00D+00 EMaxC= 1.00D-01 BMatC= 1.45D-08 BMatP= 1.45D-08
 IDIUse=1 WtCom= 1.00D+00 WtEn= 0.00D+00
 Coeff-Com:  0.100D+01
 Coeff:      0.100D+01
 Gap=     0.186 Goal=   None    Shift=    0.000
 Gap=     0.036 Goal=   None    Shift=    0.000
 RMSDP=3.16D-06 MaxDP=2.35D-05 DE=-1.52D-05 OVMax= 3.18D-05

 Cycle  10  Pass 1  IDiag  1:
 E= -153.030614099200     Delta-E=       -0.000000004906 Rises=F Damp=F
 DIIS: error= 3.73D-06 at cycle   2 NSaved=   2.
 NSaved= 2 IEnMin= 2 EnMin= -153.030614099200     IErMin= 2 ErrMin= 3.73D-06
 ErrMax= 3.73D-06  0.00D+00 EMaxC= 1.00D-01 BMatC= 2.14D-09 BMatP= 1.45D-08
 IDIUse=1 WtCom= 1.00D+00 WtEn= 0.00D+00
 Coeff-Com:  0.199D+00 0.801D+00
 Coeff:      0.199D+00 0.801D+00
 Gap=     0.186 Goal=   None    Shift=    0.000
 Gap=     0.036 Goal=   None    Shift=    0.000
 RMSDP=1.22D-06 MaxDP=1.06D-05 DE=-4.91D-09 OVMax= 1.68D-05

 Cycle  11  Pass 1  IDiag  1:
 E= -153.030614099086     Delta-E=        0.000000000114 Rises=F Damp=F
 DIIS: error= 5.82D-06 at cycle   3 NSaved=   3.
 NSaved= 3 IEnMin= 2 EnMin= -153.030614099200     IErMin= 2 ErrMin= 3.73D-06
 ErrMax= 5.82D-06  0.00D+00 EMaxC= 1.00D-01 BMatC= 2.96D-09 BMatP= 2.14D-09
 IDIUse=1 WtCom= 1.00D+00 WtEn= 0.00D+00
 Coeff-Com:  0.450D-01 0.535D+00 0.420D+00
 Coeff:      0.450D-01 0.535D+00 0.420D+00
 Gap=     0.186 Goal=   None    Shift=    0.000
 Gap=     0.036 Goal=   None    Shift=    0.000
 RMSDP=9.51D-07 MaxDP=1.10D-05 DE= 1.14D-10 OVMax= 2.23D-05

 Cycle  12  Pass 1  IDiag  1:
 E= -153.030614099588     Delta-E=       -0.000000000503 Rises=F Damp=F
 DIIS: error= 3.14D-06 at cycle   4 NSaved=   4.
 NSaved= 4 IEnMin= 4 EnMin= -153.030614099588     IErMin= 4 ErrMin= 3.14D-06
 ErrMax= 3.14D-06  0.00D+00 EMaxC= 1.00D-01 BMatC= 6.52D-10 BMatP= 2.14D-09
 IDIUse=1 WtCom= 1.00D+00 WtEn= 0.00D+00
 Coeff-Com:  0.131D-01 0.292D+00 0.334D+00 0.361D+00
 Coeff:      0.131D-01 0.292D+00 0.334D+00 0.361D+00
 Gap=     0.186 Goal=   None    Shift=    0.000
 Gap=     0.036 Goal=   None    Shift=    0.000
 RMSDP=4.35D-07 MaxDP=3.95D-06 DE=-5.03D-10 OVMax= 9.11D-06

 Cycle  13  Pass 1  IDiag  1:
 E= -153.030614099733     Delta-E=       -0.000000000145 Rises=F Damp=F
 DIIS: error= 6.44D-07 at cycle   5 NSaved=   5.
 NSaved= 5 IEnMin= 5 EnMin= -153.030614099733     IErMin= 5 ErrMin= 6.44D-07
 ErrMax= 6.44D-07  0.00D+00 EMaxC= 1.00D-01 BMatC= 4.45D-11 BMatP= 6.52D-10
 IDIUse=1 WtCom= 1.00D+00 WtEn= 0.00D+00
 Coeff-Com: -0.439D-02 0.686D-01 0.138D+00 0.234D+00 0.563D+00
 Coeff:     -0.439D-02 0.686D-01 0.138D+00 0.234D+00 0.563D+00
 Gap=     0.186 Goal=   None    Shift=    0.000
 Gap=     0.036 Goal=   None    Shift=    0.000
 RMSDP=1.32D-07 MaxDP=1.19D-06 DE=-1.45D-10 OVMax= 2.88D-06

 Cycle  14  Pass 1  IDiag  1:
 E= -153.030614099746     Delta-E=       -0.000000000013 Rises=F Damp=F
 DIIS: error= 2.10D-07 at cycle   6 NSaved=   6.
 NSaved= 6 IEnMin= 6 EnMin= -153.030614099746     IErMin= 6 ErrMin= 2.10D-07
 ErrMax= 2.10D-07  0.00D+00 EMaxC= 1.00D-01 BMatC= 2.96D-12 BMatP= 4.45D-11
 IDIUse=1 WtCom= 1.00D+00 WtEn= 0.00D+00
 Coeff-Com: -0.301D-02-0.384D-02 0.244D-01 0.506D-01 0.239D+00 0.693D+00
 Coeff:     -0.301D-02-0.384D-02 0.244D-01 0.506D-01 0.239D+00 0.693D+00
 Gap=     0.186 Goal=   None    Shift=    0.000
 Gap=     0.036 Goal=   None    Shift=    0.000
 RMSDP=5.18D-08 MaxDP=4.87D-07 DE=-1.33D-11 OVMax= 9.20D-07

 Cycle  15  Pass 1  IDiag  1:
 E= -153.030614099747     Delta-E=       -0.000000000001 Rises=F Damp=F
 DIIS: error= 5.38D-08 at cycle   7 NSaved=   7.
 NSaved= 7 IEnMin= 7 EnMin= -153.030614099747     IErMin= 7 ErrMin= 5.38D-08
 ErrMax= 5.38D-08  0.00D+00 EMaxC= 1.00D-01 BMatC= 3.66D-13 BMatP= 2.96D-12
 IDIUse=1 WtCom= 1.00D+00 WtEn= 0.00D+00
 Coeff-Com:  0.402D-03-0.173D-01-0.265D-01-0.470D-01-0.810D-01 0.213D+00
 Coeff-Com:  0.958D+00
 Coeff:      0.402D-03-0.173D-01-0.265D-01-0.470D-01-0.810D-01 0.213D+00
 Coeff:      0.958D+00
 Gap=     0.186 Goal=   None    Shift=    0.000
 Gap=     0.036 Goal=   None    Shift=    0.000
 RMSDP=1.96D-08 MaxDP=2.45D-07 DE=-9.38D-13 OVMax= 4.53D-07

 Cycle  16  Pass 1  IDiag  1:
 E= -153.030614099748     Delta-E=        0.000000000000 Rises=F Damp=F
 DIIS: error= 1.21D-08 at cycle   8 NSaved=   8.
 NSaved= 8 IEnMin= 8 EnMin= -153.030614099748     IErMin= 8 ErrMin= 1.21D-08
 ErrMax= 1.21D-08  0.00D+00 EMaxC= 1.00D-01 BMatC= 9.20D-15 BMatP= 3.66D-13
 IDIUse=1 WtCom= 1.00D+00 WtEn= 0.00D+00
 Coeff-Com:  0.196D-03-0.324D-03-0.206D-02-0.585D-02-0.187D-01-0.312D-01
 Coeff-Com:  0.353D-01 0.102D+01
 Coeff:      0.196D-03-0.324D-03-0.206D-02-0.585D-02-0.187D-01-0.312D-01
 Coeff:      0.353D-01 0.102D+01
 Gap=     0.186 Goal=   None    Shift=    0.000
 Gap=     0.036 Goal=   None    Shift=    0.000
 RMSDP=3.98D-09 MaxDP=5.54D-08 DE=-2.27D-13 OVMax= 1.09D-07

 SCF Done:  E(UB97D) =  -153.030614100     A.U. after   16 cycles
            NFock= 16  Conv=0.40D-08     -V/T= 2.0047
 <Sx>= 0.0000 <Sy>= 0.0000 <Sz>= 0.5000 <S**2>= 0.7632 S= 0.5066
 <L.S>= 0.000000000000E+00
 KE= 1.523153072515D+02 PE=-4.838341996009D+02 EE= 1.157477400963D+02
 Annihilation of the first spin contaminant:
 S**2 before annihilation     0.7632,   after     0.7501
 Leave Link  502 at Sat Feb 16 13:47:52 2019, MaxMem=   196608000 cpu:        68.8
 (Enter /cm/shared/c3ddb/gaussian/09.d01/g09/l508.exe)
 QCSCF skips out because SCF is already converged.
 Leave Link  508 at Sat Feb 16 13:47:52 2019, MaxMem=   196608000 cpu:         0.0
 (Enter /cm/shared/c3ddb/gaussian/09.d01/g09/l701.exe)
 Compute integral first derivatives.
 ... and contract with generalized density number  0.
 R6Disp: Adding Grimme-D2 dispersion energy 1st derivatives to the gradient.
 Leave Link  701 at Sat Feb 16 13:47:52 2019, MaxMem=   196608000 cpu:         3.0
 (Enter /cm/shared/c3ddb/gaussian/09.d01/g09/l702.exe)
 L702 exits ... SP integral derivatives will be done elsewhere.
 Leave Link  702 at Sat Feb 16 13:47:52 2019, MaxMem=   196608000 cpu:         0.1
 (Enter /cm/shared/c3ddb/gaussian/09.d01/g09/l703.exe)
 Compute integral first derivatives, UseDBF=F ICtDFT=           0.
 Integral derivatives from FoFJK, PRISM(SPDF).
 Calling FoFJK, ICntrl=      2527 FMM=F ISym2X=0 I1Cent= 0 IOpClX= 0 NMat=1 NMatS=1 NMatT=0.
 FoFJK:  IHMeth= 1 ICntrl=    2527 DoSepK=F KAlg= 0 I1Cent=   0 FoldK=F
 IRaf=         0 NMat=   1 IRICut=       1 DoRegI=T DoRafI=F ISym2E= 0.
 FoFCou: FMM=F IPFlag=           0 FMFlag=      100000 FMFlg1=         800
         NFxFlg=           0 DoJE=F BraDBF=F KetDBF=F FulRan=T
         wScrn=  0.000000 ICntrl=    2527 IOpCl=  0 I1Cent=           0 NGrid=           0
         NMat0=    1 NMatS0=      1 NMatT0=    0 NMatD0=    1 NMtDS0=    0 NMtDT0=    0
 Symmetry not used in FoFCou.
 Leave Link  703 at Sat Feb 16 13:47:53 2019, MaxMem=   196608000 cpu:         3.4
 (Enter /cm/shared/c3ddb/gaussian/09.d01/g09/l716.exe)
 Dipole        =-1.13675966D+00 3.32777706D-01 7.44073061D-07
 ***** Axes restored to original set *****
 -------------------------------------------------------------------
 Center     Atomic                   Forces (Hartrees/Bohr)
 Number     Number              X              Y              Z
 -------------------------------------------------------------------
      1        8          -0.010755866   -0.003035108    0.001796077
      2        6           0.000508470    0.000544266    0.000191088
      3        6           0.009914067    0.002095712   -0.002138791
      4        1           0.000471662    0.000356919    0.000075537
      5        1          -0.000008666    0.000395040    0.000275135
      6        1          -0.000129668   -0.000356829   -0.000199046
 -------------------------------------------------------------------
 Cartesian Forces:  Max     0.010755866 RMS     0.003626630
 Leave Link  716 at Sat Feb 16 13:47:53 2019, MaxMem=   196608000 cpu:         0.1
 (Enter /cm/shared/c3ddb/gaussian/09.d01/g09/l103.exe)

 GradGradGradGradGradGradGradGradGradGradGradGradGradGradGradGradGradGrad
 Berny optimization.
 Using GEDIIS/GDIIS optimizer.
 FormGI is forming the generalized inverse of G from B-inverse, IUseBI=4.
 Internal  Forces:  Max     0.011307785 RMS     0.002969734
 Search for a local minimum.
 Step number   2 out of a maximum of   25
 All quantities printed in internal units (Hartrees-Bohrs-Radians)
 RMS Force = .29697D-02 SwitMx=.10000D-02 MixMth= 1
 Mixed Optimization -- RFO/linear search
 Update second derivatives using D2CorX and points    1    2
 DE= -4.22D-03 DEPred=-3.94D-03 R= 1.07D+00
 TightC=F SS=  1.41D+00  RLast= 1.45D-01 DXNew= 5.0454D-01 4.3402D-01
 Trust test= 1.07D+00 RLast= 1.45D-01 DXMaxT set to 4.34D-01
 The second derivative matrix:
                          R1        R2        R3        R4        R5
           R1           0.68499
           R2           0.08643   0.29651
           R3          -0.00542  -0.00451   0.37858
           R4          -0.00385  -0.00220  -0.00260   0.37673
           R5           0.02704   0.00324   0.00187   0.00016   0.31297
           A1           0.00443   0.00489   0.00490  -0.01044   0.00065
           A2          -0.00394   0.00805  -0.00999   0.00660   0.00151
           A3          -0.00049  -0.01294   0.00510   0.00384  -0.00216
           A4           0.02905   0.01271   0.00804  -0.00604  -0.01270
           A5           0.01470  -0.02304  -0.00413   0.00019   0.00228
           A6          -0.04375   0.01033  -0.00392   0.00584   0.01042
           D1           0.00000   0.00000   0.00000   0.00000   0.00000
           D2           0.00000   0.00000   0.00000   0.00000   0.00000
           D3           0.00000   0.00000   0.00000   0.00000   0.00000
           D4           0.00000   0.00000   0.00000   0.00000   0.00000
                          A1        A2        A3        A4        A5
           A1           0.07462
           A2          -0.04009   0.07241
           A3          -0.03452  -0.03231   0.06684
           A4           0.02060  -0.02013  -0.00047   0.15480
           A5          -0.00475   0.00239   0.00236  -0.08497   0.12191
           A6          -0.01586   0.01774  -0.00188  -0.06984  -0.03694
           D1           0.00000   0.00000   0.00000   0.00000   0.00000
           D2           0.00000   0.00000   0.00000   0.00000   0.00000
           D3           0.00000   0.00000   0.00000   0.00000   0.00000
           D4           0.00000   0.00000   0.00000   0.00000   0.00000
                          A6        D1        D2        D3        D4
           A6           0.10678
           D1           0.00000   0.02343
           D2           0.00000  -0.00987   0.02701
           D3           0.00000   0.01290  -0.02283   0.02856
           D4           0.00000  -0.02040   0.01405  -0.00716   0.02729
 ITU=  1  0
 Use linear search instead of GDIIS.
     Eigenvalues ---    0.00944   0.02652   0.07033   0.09579   0.10055
     Eigenvalues ---    0.14525   0.23308   0.28844   0.31559   0.37518
     Eigenvalues ---    0.38279   0.71048
 RFO step:  Lambda=-4.84474779D-05 EMin= 9.43878111D-03
 Quartic linear search produced a step of  0.16692.
 Iteration  1 RMS(Cart)=  0.00537572 RMS(Int)=  0.00001399
 Iteration  2 RMS(Cart)=  0.00001465 RMS(Int)=  0.00000000
 Iteration  3 RMS(Cart)=  0.00000000 RMS(Int)=  0.00000000
 ITry= 1 IFail=0 DXMaxC= 1.12D-02 DCOld= 1.00D+10 DXMaxT= 4.34D-01 DXLimC= 3.00D+00 Rises=F
 Variable       Old X    -DE/DX   Delta X   Delta X   Delta X     New X
                                 (Linear)    (Quad)   (Total)
    R1        2.39827   0.01131   0.01473   0.00366   0.01839   2.41666
    R2        2.69196   0.00169  -0.01198   0.00931  -0.00267   2.68929
    R3        2.06158   0.00051   0.00382  -0.00170   0.00212   2.06369
    R4        2.06121   0.00041   0.00321  -0.00154   0.00167   2.06288
    R5        2.09623   0.00025   0.00237  -0.00305  -0.00068   2.09555
    A1        2.11216   0.00025   0.00444  -0.00027   0.00417   2.11634
    A2        2.08589   0.00014   0.00364  -0.00050   0.00314   2.08904
    A3        2.08513  -0.00039  -0.00808   0.00076  -0.00731   2.07781
    A4        2.14619   0.00062   0.00463  -0.00395   0.00067   2.14686
    A5        2.09961  -0.00068  -0.00788  -0.00008  -0.00796   2.09166
    A6        2.03738   0.00005   0.00325   0.00403   0.00728   2.04466
    D1       -3.14158   0.00000   0.00000  -0.00002  -0.00002   3.14158
    D2        0.00001   0.00000   0.00000  -0.00002  -0.00002  -0.00001
    D3        0.00001   0.00000   0.00000  -0.00001  -0.00001  -0.00001
    D4       -3.14159   0.00000   0.00000  -0.00001  -0.00001   3.14158
         Item               Value     Threshold  Converged?
 Maximum Force            0.011308     0.000450     NO 
[...]
 -------------------------------------------------------------------
 Cartesian Forces:  Max     0.000084698 RMS     0.000031364
 Leave Link  716 at Sat Feb 16 13:48:26 2019, MaxMem=   196608000 cpu:         0.1
 (Enter /cm/shared/c3ddb/gaussian/09.d01/g09/l103.exe)

 GradGradGradGradGradGradGradGradGradGradGradGradGradGradGradGradGradGrad
 Berny optimization.
 Using GEDIIS/GDIIS optimizer.
 FormGI is forming the generalized inverse of G from B-inverse, IUseBI=4.
 Internal  Forces:  Max     0.000052314 RMS     0.000029581
 Search for a local minimum.
 Step number   4 out of a maximum of   25
 All quantities printed in internal units (Hartrees-Bohrs-Radians)
 RMS Force = .29581D-04 SwitMx=.10000D-02 MixMth= 2
 Mixed Optimization -- En-DIIS/RFO-DIIS
 Swapping is turned off.
 Update second derivatives using D2CorX and points    1    2    3    4
 DE= -4.14D-06 DEPred=-3.91D-06 R= 1.06D+00
 TightC=F SS=  1.41D+00  RLast= 5.66D-03 DXNew= 7.2994D-01 1.6988D-02
 Trust test= 1.06D+00 RLast= 5.66D-03 DXMaxT set to 4.34D-01
 The second derivative matrix:
                          R1        R2        R3        R4        R5
           R1           0.54505
           R2           0.10749   0.30919
           R3           0.00495  -0.00137   0.37693
           R4           0.00442   0.00026  -0.00390   0.37571
           R5           0.03066   0.00434   0.00079  -0.00067   0.31230
           A1           0.00721   0.00516   0.00417  -0.01098   0.00044
           A2          -0.00560   0.00726  -0.01016   0.00650   0.00166
           A3          -0.00162  -0.01242   0.00599   0.00448  -0.00210
           A4           0.03693   0.01573   0.00654  -0.00723  -0.01368
           A5           0.00906  -0.02493  -0.00292   0.00113   0.00278
           A6          -0.04599   0.00919  -0.00362   0.00610   0.01090
           D1           0.00000   0.00000   0.00000   0.00000   0.00000
           D2           0.00000   0.00000   0.00000   0.00000   0.00000
           D3           0.00000   0.00000   0.00000   0.00000   0.00000
           D4           0.00000   0.00000   0.00000   0.00000   0.00000
                          A1        A2        A3        A4        A5
           A1           0.07474
           A2          -0.03975   0.07276
           A3          -0.03499  -0.03300   0.06799
           A4           0.01986  -0.02038   0.00051   0.15338
           A5          -0.00447   0.00233   0.00213  -0.08370   0.12090
           A6          -0.01540   0.01804  -0.00265  -0.06968  -0.03720
           D1           0.00000   0.00000   0.00000   0.00000   0.00000
           D2           0.00000   0.00000   0.00000   0.00000   0.00000
           D3           0.00000   0.00000   0.00000   0.00000   0.00000
           D4           0.00000   0.00000   0.00000   0.00000   0.00000
                          A6        D1        D2        D3        D4
           A6           0.10688
           D1           0.00000   0.02343
           D2           0.00000  -0.00987   0.02701
           D3           0.00000   0.01290  -0.02283   0.02856
           D4           0.00000  -0.02040   0.01405  -0.00716   0.02729
 ITU=  1  1  1  0
     Eigenvalues ---    0.00944   0.02652   0.07033   0.09591   0.10206
     Eigenvalues ---    0.14213   0.22809   0.27874   0.31564   0.37273
     Eigenvalues ---    0.38246   0.59807
 En-DIIS/RFO-DIIS IScMMF=        0 using points:     4    3
 RFO step:  Lambda=-2.45527522D-08.
 NNeg= 0 NP= 2 Switch=  2.50D-03 Rises=F DC=  4.14D-06 SmlDif=  1.00D-05
 RMS Error=  0.5584516537D-04 NUsed= 2 EDIIS=F
 DidBck=F Rises=F RFO-DIIS coefs:    1.04802   -0.04802
 Iteration  1 RMS(Cart)=  0.00014931 RMS(Int)=  0.00000001
 Iteration  2 RMS(Cart)=  0.00000001 RMS(Int)=  0.00000000
 ITry= 1 IFail=0 DXMaxC= 2.89D-04 DCOld= 1.00D+10 DXMaxT= 4.34D-01 DXLimC= 3.00D+00 Rises=F
 Variable       Old X    -DE/DX   Delta X   Delta X   Delta X     New X
                                 (Linear)    (Quad)   (Total)
    R1        2.41957   0.00005   0.00014   0.00001   0.00015   2.41972
    R2        2.68983  -0.00004   0.00003  -0.00019  -0.00016   2.68967
    R3        2.06318  -0.00005  -0.00002  -0.00010  -0.00013   2.06305
    R4        2.06238  -0.00004  -0.00002  -0.00009  -0.00011   2.06227
    R5        2.09484  -0.00001  -0.00003  -0.00003  -0.00007   2.09478
    A1        2.11438  -0.00001  -0.00009   0.00000  -0.00009   2.11429
    A2        2.08739   0.00000  -0.00008   0.00006  -0.00002   2.08736
    A3        2.08142   0.00001   0.00017  -0.00006   0.00012   2.08154
    A4        2.14575  -0.00005  -0.00005  -0.00015  -0.00020   2.14555
    A5        2.09285   0.00005   0.00006   0.00013   0.00019   2.09304
    A6        2.04458   0.00000   0.00000   0.00002   0.00001   2.04460
    D1        3.14159   0.00000   0.00000   0.00000   0.00000   3.14159
    D2        0.00000   0.00000   0.00000   0.00000   0.00000   0.00000
    D3        0.00000   0.00000   0.00000   0.00000   0.00000   0.00000
    D4        3.14159   0.00000   0.00000   0.00000   0.00000   3.14159
         Item               Value     Threshold  Converged?
 Maximum Force            0.000052     0.000450     YES
 RMS     Force            0.000030     0.000300     YES
 Maximum Displacement     0.000289     0.001800     YES
 RMS     Displacement     0.000149     0.001200     YES
 Predicted change in Energy=-2.339012D-08
 Optimization completed.
    -- Stationary point found.
                           ----------------------------
                           !   Optimized Parameters   !
                           ! (Angstroms and Degrees)  !
 --------------------------                            --------------------------
 ! Name  Definition              Value          Derivative Info.                !
 --------------------------------------------------------------------------------
 ! R1    R(1,3)                  1.2804         -DE/DX =    0.0001              !
 ! R2    R(2,3)                  1.4234         -DE/DX =    0.0                 !
 ! R3    R(2,4)                  1.0918         -DE/DX =    0.0                 !
 ! R4    R(2,5)                  1.0914         -DE/DX =    0.0                 !
 ! R5    R(3,6)                  1.1085         -DE/DX =    0.0                 !
 ! A1    A(3,2,4)              121.1449         -DE/DX =    0.0                 !
 ! A2    A(3,2,5)              119.5984         -DE/DX =    0.0                 !
 ! A3    A(4,2,5)              119.2567         -DE/DX =    0.0                 !
 ! A4    A(1,3,2)              122.9425         -DE/DX =    0.0                 !
 ! A5    A(1,3,6)              119.9116         -DE/DX =    0.0                 !
 ! A6    A(2,3,6)              117.1459         -DE/DX =    0.0                 !
 ! D1    D(4,2,3,1)            180.0            -DE/DX =    0.0                 !
 ! D2    D(4,2,3,6)              0.0            -DE/DX =    0.0                 !
 ! D3    D(5,2,3,1)              0.0            -DE/DX =    0.0                 !
 ! D4    D(5,2,3,6)            180.0            -DE/DX =    0.0                 !
 --------------------------------------------------------------------------------
 Lowest energy point so far.  Saving SCF results.
 GradGradGradGradGradGradGradGradGradGradGradGradGradGradGradGradGradGrad

 Largest change from initial coordinates is atom    4       0.029 Angstoms.
 Leave Link  103 at Sat Feb 16 13:48:29 2019, MaxMem=   196608000 cpu:        12.8
 (Enter /cm/shared/c3ddb/gaussian/09.d01/g09/l202.exe)
                          Input orientation:                          
 ---------------------------------------------------------------------
 Center     Atomic      Atomic             Coordinates (Angstroms)
 Number     Number       Type             X           Y           Z
 ---------------------------------------------------------------------
      1          8           0        0.952206   -0.168489    0.262954
      2          6           0        2.817997    1.269062    0.578919
      3          6           0        2.175053    0.126633    0.024361
      4          1           0        3.862972    1.492951    0.355535
      5          1           0        2.259287    1.934594    1.239208
      6          1           0        2.780476   -0.521403   -0.640758
 ---------------------------------------------------------------------
                    Distance matrix (angstroms):
                    1          2          3          4          5
     1  O    0.000000
     2  C    2.376461   0.000000
     3  C    1.280382   1.423396   0.000000
     4  H    3.352837   1.091787   2.196718   0.000000
     5  H    2.661671   1.091363   2.179833   1.883543   0.000000
     6  H    2.069737   2.166745   1.108544   2.494398   3.136532
                    6
     6  H    0.000000
 Stoichiometry    C2H3O(2)
 Framework group  C1[X(C2H3O)]
 Deg. of freedom    12
 Full point group                 C1      NOp   1
 RotChk:  IX=0 Diff= 1.77D-15
 Largest Abelian subgroup         C1      NOp   1
 Largest concise Abelian subgroup C1      NOp   1
                         Standard orientation:                         
 ---------------------------------------------------------------------
 Center     Atomic      Atomic             Coordinates (Angstroms)
 Number     Number       Type             X           Y           Z
 ---------------------------------------------------------------------
      1          8           0        1.197424   -0.263143    0.000000
      2          6           0       -1.177631   -0.181422    0.000000
      3          6           0        0.113335    0.418128    0.000000
      4          1           0       -2.083360    0.428213    0.000000
      5          1           0       -1.266815   -1.269135    0.000000
      6          1           0        0.156564    1.525829    0.000000
 ---------------------------------------------------------------------
 Rotational constants (GHZ):     65.4376078     11.0987006      9.4892533
 Leave Link  202 at Sat Feb 16 13:48:29 2019, MaxMem=   196608000 cpu:         0.2
 (Enter /cm/shared/c3ddb/gaussian/09.d01/g09/l601.exe)
 Copying SCF densities to generalized density rwf, IOpCl= 1 IROHF=0.

 **********************************************************************

            Population analysis using the SCF density.

 **********************************************************************

 Orbital symmetries:
 Alpha Orbitals:
       Occupied  (A) (A) (A) (A) (A) (A) (A) (A) (A) (A) (A) (A)
       Virtual   (A) (A) (A) (A) (A) (A) (A) (A) (A) (A) (A) (A)
                 (A) (A) (A) (A) (A) (A) (A) (A) (A)
 Beta  Orbitals:
       Occupied  (A) (A) (A) (A) (A) (A) (A) (A) (A) (A) (A)
       Virtual   (A) (A) (A) (A) (A) (A) (A) (A) (A) (A) (A) (A)
                 (A) (A) (A) (A) (A) (A) (A) (A) (A) (A)
 The electronic state is 2-A.
 Alpha  occ. eigenvalues --  -18.77833  -9.99777  -9.95837  -0.95934  -0.70211
 Alpha  occ. eigenvalues --   -0.53078  -0.44884  -0.40126  -0.36048  -0.35987
 Alpha  occ. eigenvalues --   -0.23219  -0.21864
 Alpha virt. eigenvalues --   -0.03397   0.08288   0.09654   0.13463   0.23233
 Alpha virt. eigenvalues --    0.26361   0.48112   0.50856   0.55812   0.58127
 Alpha virt. eigenvalues --    0.59773   0.60621   0.77539   0.83043   0.86333
 Alpha virt. eigenvalues --    0.88563   0.91217   1.00375   1.05545   1.15573
 Alpha virt. eigenvalues --    1.64503
  Beta  occ. eigenvalues --  -18.77247  -9.99846  -9.95532  -0.94153  -0.67593
  Beta  occ. eigenvalues --   -0.52215  -0.43964  -0.39056  -0.34931  -0.33346
  Beta  occ. eigenvalues --   -0.20446
  Beta virt. eigenvalues --   -0.16895  -0.00750   0.09077   0.10468   0.14012
  Beta virt. eigenvalues --    0.23623   0.26964   0.49546   0.51518   0.56710
  Beta virt. eigenvalues --    0.58334   0.59859   0.60915   0.78263   0.83271
  Beta virt. eigenvalues --    0.87607   0.89304   0.94262   1.01106   1.06211
  Beta virt. eigenvalues --    1.15601   1.66025
          Condensed to atoms (all electrons):
               1          2          3          4          5          6
     1  O    8.106757  -0.088046   0.418801   0.003453   0.002230  -0.061678
     2  C   -0.088046   5.481426   0.314597   0.313226   0.346802  -0.122871
     3  C    0.418801   0.314597   4.794826  -0.007749  -0.024086   0.337655
     4  H    0.003453   0.313226  -0.007749   0.553623  -0.027532   0.005527
     5  H    0.002230   0.346802  -0.024086  -0.027532   0.519385   0.005315
     6  H   -0.061678  -0.122871   0.337655   0.005527   0.005315   0.712693
          Atomic-Atomic Spin Densities.
               1          2          3          4          5          6
     1  O    0.463602  -0.017242  -0.035762  -0.000117   0.000430   0.000945
     2  C   -0.017242   0.848527   0.008616  -0.003792  -0.007398  -0.000157
     3  C   -0.035762   0.008616  -0.133317  -0.000945  -0.000477   0.009136
     4  H   -0.000117  -0.003792  -0.000945  -0.041316   0.002280  -0.000091
     5  H    0.000430  -0.007398  -0.000477   0.002280  -0.039054  -0.000091
     6  H    0.000945  -0.000157   0.009136  -0.000091  -0.000091  -0.009110
 Mulliken charges and spin densities:
               1          2
     1  O   -0.381518   0.411855
     2  C   -0.245134   0.828554
     3  C    0.165956  -0.152751
     4  H    0.159452  -0.043980
     5  H    0.177885  -0.044311
     6  H    0.123358   0.000632
 Sum of Mulliken charges =   0.00000   1.00000
 Mulliken charges and spin densities with hydrogens summed into heavy atoms:
               1          2
     1  O   -0.381518   0.411855
     2  C    0.092203   0.740263
     3  C    0.289314  -0.152119
 Electronic spatial extent (au):  <R**2>=            153.2447
 Charge=              0.0000 electrons
 Dipole moment (field-independent basis, Debye):
    X=             -2.9167    Y=              0.8521    Z=              0.0000  Tot=              3.0386
 Quadrupole moment (field-independent basis, Debye-Ang):
   XX=            -18.9930   YY=            -16.5399   ZZ=            -18.0323
   XY=              1.0747   XZ=              0.0000   YZ=              0.0000
 Traceless Quadrupole moment (field-independent basis, Debye-Ang):
   XX=             -1.1379   YY=              1.3152   ZZ=             -0.1773
   XY=              1.0747   XZ=              0.0000   YZ=              0.0000
 Octapole moment (field-independent basis, Debye-Ang**2):
  XXX=             -3.9343  YYY=             -1.1716  ZZZ=              0.0000  XYY=             -0.1040
  XXY=              0.7783  XXZ=              0.0000  XZZ=              2.4237  YZZ=             -0.4209
  YYZ=              0.0000  XYZ=              0.0000
 Hexadecapole moment (field-independent basis, Debye-Ang**3):
 XXXX=           -129.3666 YYYY=            -39.4670 ZZZZ=            -16.1594 XXXY=             -2.6204
 XXXZ=              0.0000 YYYX=              1.2426 YYYZ=              0.0000 ZZZX=              0.0000
 ZZZY=              0.0000 XXYY=            -27.5462 XXZZ=            -25.0798 YYZZ=            -10.0970
 XXYZ=              0.0000 YYXZ=              0.0000 ZZXY=             -0.5451
 N-N= 6.251740258782D+01 E-N=-4.833737986260D+02  KE= 1.522817217802D+02
                          Isotropic Fermi Contact Couplings
        Atom                 a.u.       MegaHertz       Gauss      10(-4) cm-1
     1  O(17)              0.07429     -45.03370     -16.06914     -15.02163
     2  C(13)              0.12260     137.82333      49.17879      45.97291
     3  C(13)             -0.04766     -53.57962     -19.11854     -17.87224
     4  H(1)              -0.01352     -60.44308     -21.56759     -20.16164
     5  H(1)              -0.01352     -60.42033     -21.55948     -20.15405
     6  H(1)              -0.00016      -0.70825      -0.25272      -0.23625
 --------------------------------------------------------
       Center         ----  Spin Dipole Couplings  ----
                      3XX-RR        3YY-RR        3ZZ-RR
 --------------------------------------------------------
     1   Atom       -0.736262     -0.739112      1.475374
     2   Atom       -0.390416     -0.391533      0.781949
     3   Atom        0.070497      0.027521     -0.098019
     4   Atom        0.029931     -0.017969     -0.011962
     5   Atom       -0.049260      0.062305     -0.013045
     6   Atom        0.005843      0.003150     -0.008993
 --------------------------------------------------------
                        XY            XZ            YZ
 --------------------------------------------------------
     1   Atom       -0.008932     -0.000001      0.000000
     2   Atom       -0.005278      0.000000      0.000000
     3   Atom       -0.008600      0.000000      0.000000
     4   Atom       -0.055876      0.000000      0.000000
     5   Atom        0.011625      0.000000      0.000000
     6   Atom        0.005958      0.000000      0.000000
 --------------------------------------------------------


 ---------------------------------------------------------------------------------
              Anisotropic Spin Dipole Couplings in Principal Axis System
 ---------------------------------------------------------------------------------

       Atom             a.u.   MegaHertz   Gauss  10(-4) cm-1        Axes

              Baa    -0.7467    54.033    19.280    18.023  0.6490  0.7608  0.0000
     1 O(17)  Bbb    -0.7286    52.724    18.813    17.587  0.7608 -0.6490  0.0000
              Bcc     1.4754  -106.757   -38.094   -35.610  0.0000  0.0000  1.0000
 
              Baa    -0.3963   -53.177   -18.975   -17.738  0.6689  0.7434  0.0000
     2 C(13)  Bbb    -0.3857   -51.753   -18.467   -17.263  0.7434 -0.6689  0.0000
              Bcc     0.7819   104.930    37.442    35.001  0.0000  0.0000  1.0000
 
              Baa    -0.0980   -13.153    -4.693    -4.387  0.0000  0.0000  1.0000
     3 C(13)  Bbb     0.0259     3.471     1.238     1.158  0.1892  0.9819  0.0000
              Bcc     0.0722     9.682     3.455     3.230  0.9819 -0.1892  0.0000
 
              Baa    -0.0548   -29.245   -10.435    -9.755  0.5505  0.8349  0.0000
     4 H(1)   Bbb    -0.0120    -6.382    -2.277    -2.129  0.0000  0.0000  1.0000
              Bcc     0.0668    35.627    12.713    11.884  0.8349 -0.5505  0.0000
 
              Baa    -0.0505   -26.922    -9.606    -8.980  0.9947 -0.1025  0.0000
     5 H(1)   Bbb    -0.0130    -6.960    -2.484    -2.322  0.0000  0.0000  1.0000
              Bcc     0.0635    33.882    12.090    11.302  0.1025  0.9947  0.0000
 
              Baa    -0.0090    -4.798    -1.712    -1.601  0.0000  0.0000  1.0000
     6 H(1)   Bbb    -0.0016    -0.860    -0.307    -0.287 -0.6243  0.7812  0.0000
              Bcc     0.0106     5.658     2.019     1.887  0.7812  0.6243  0.0000
 

 ---------------------------------------------------------------------------------

 No NMR shielding tensors so no spin-rotation constants.
 Leave Link  601 at Sat Feb 16 13:48:31 2019, MaxMem=   196608000 cpu:         9.4
 (Enter /cm/shared/c3ddb/gaussian/09.d01/g09/l9999.exe)
 1\1\GINC-NODE026\FOpt\UB97D\6-31G\C2H3O1(2)\DUMINDA\16-Feb-2019\0\\#P 
 opt=calcfc ub97d/6-31g scf=xqc\\name\\0,2\O,0.952206217,-0.1684893118,
 0.2629536241\C,2.8179972463,1.2690622655,0.5789185115\C,2.1750530685,0
 .1266329044,0.0243607855\H,3.8629722156,1.4929508906,0.3555346478\H,2.
 2592865002,1.9345940574,1.2392083385\H,2.7804758324,-0.5214032761,-0.6
 407575673\\Version=AS64L-G09RevD.01\State=2-A\HF=-153.0307355\S2=0.764
 032\S2-1=0.\S2A=0.750076\RMSD=4.256e-09\RMSF=3.136e-05\Dipole=1.071929
 2,0.5287415,-0.0231478\Quadrupole=-0.8872733,0.4979702,0.389303,-0.644
 8135,-0.1711465,0.666767\PG=C01 [X(C2H3O1)]\\@


 MISERY NO LONGER LOVES COMPANY.  NOWADAYS IT INSISTS ON IT.

                                              -- BAKER'S LAW
 Job cpu time:       0 days  0 hours  8 minutes 22.9 seconds.
 File lengths (MBytes):  RWF=      5 Int=      0 D2E=      0 Chk=      1 Scr=      1
 Normal termination of Gaussian 09 at Sat Feb 16 13:48:31 2019.
