 Entering Gaussian System, Link 0=g09
 Initial command:
 /cm/shared/c3ddb/gaussian/09.d01/g09/l1.exe "/scratch/users/duminda/g09/a1682-7322572/Gau-64728.inp" -scrdir="/scratch/users/duminda/g09/a1682-7322572/"
 Entering Link 1 = /cm/shared/c3ddb/gaussian/09.d01/g09/l1.exe PID=     64729.
  
 Copyright (c) 1988,1990,1992,1993,1995,1998,2003,2009,2013,
            Gaussian, Inc.  All Rights Reserved.
  
 This is part of the Gaussian(R) 09 program.  It is based on
 the Gaussian(R) 03 system (copyright 2003, Gaussian, Inc.),
 the Gaussian(R) 98 system (copyright 1998, Gaussian, Inc.),
 the Gaussian(R) 94 system (copyright 1995, Gaussian, Inc.),
 the Gaussian 92(TM) system (copyright 1992, Gaussian, Inc.),
 the Gaussian 90(TM) system (copyright 1990, Gaussian, Inc.),
 the Gaussian 88(TM) system (copyright 1988, Gaussian, Inc.),
 the Gaussian 86(TM) system (copyright 1986, Carnegie Mellon
 University), and the Gaussian 82(TM) system (copyright 1983,
 Carnegie Mellon University). Gaussian is a federally registered
 trademark of Gaussian, Inc.
  
 This software contains proprietary and confidential information,
 including trade secrets, belonging to Gaussian, Inc.
  
 This software is provided under written license and may be
 used, copied, transmitted, or stored only in accord with that
 written license.
  
 The following legend is applicable only to US Government
 contracts under FAR:
  
                    RESTRICTED RIGHTS LEGEND
  
 Use, reproduction and disclosure by the US Government is
 subject to restrictions as set forth in subparagraphs (a)
 and (c) of the Commercial Computer Software - Restricted
 Rights clause in FAR 52.227-19.
  
 Gaussian, Inc.
 340 Quinnipiac St., Bldg. 40, Wallingford CT 06492
  
  
 ---------------------------------------------------------------
 Warning -- This program may not be used in any manner that
 competes with the business of Gaussian, Inc. or will provide
 assistance to any competitor of Gaussian, Inc.  The licensee
 of this program is prohibited from giving any competitor of
 Gaussian, Inc. access to this program.  By using this program,
 the user acknowledges that Gaussian, Inc. is engaged in the
 business of creating and licensing software in the field of
 computational chemistry and represents and warrants to the
 licensee that it is not a competitor of Gaussian, Inc. and that
 it will not use this program in any manner prohibited above.
 ---------------------------------------------------------------
  

 Cite this work as:
 Gaussian 09, Revision D.01,
 M. J. Frisch, G. W. Trucks, H. B. Schlegel, G. E. Scuseria, 
 M. A. Robb, J. R. Cheeseman, G. Scalmani, V. Barone, B. Mennucci, 
 G. A. Petersson, H. Nakatsuji, M. Caricato, X. Li, H. P. Hratchian, 
 A. F. Izmaylov, J. Bloino, G. Zheng, J. L. Sonnenberg, M. Hada, 
 M. Ehara, K. Toyota, R. Fukuda, J. Hasegawa, M. Ishida, T. Nakajima, 
 Y. Honda, O. Kitao, H. Nakai, T. Vreven, J. A. Montgomery, Jr., 
 J. E. Peralta, F. Ogliaro, M. Bearpark, J. J. Heyd, E. Brothers, 
 K. N. Kudin, V. N. Staroverov, T. Keith, R. Kobayashi, J. Normand, 
 K. Raghavachari, A. Rendell, J. C. Burant, S. S. Iyengar, J. Tomasi, 
 M. Cossi, N. Rega, J. M. Millam, M. Klene, J. E. Knox, J. B. Cross, 
 V. Bakken, C. Adamo, J. Jaramillo, R. Gomperts, R. E. Stratmann, 
 O. Yazyev, A. J. Austin, R. Cammi, C. Pomelli, J. W. Ochterski, 
 R. L. Martin, K. Morokuma, V. G. Zakrzewski, G. A. Voth, 
 P. Salvador, J. J. Dannenberg, S. Dapprich, A. D. Daniels, 
 O. Farkas, J. B. Foresman, J. V. Ortiz, J. Cioslowski, 
 and D. J. Fox, Gaussian, Inc., Wallingford CT, 2013.
 
 ******************************************
 Gaussian 09:  AS64L-G09RevD.01 24-Apr-2013
                16-Feb-2019 
 ******************************************
 %chk=check.chk
 %mem=1500mb
 %nproc=8
 Will use up to    8 processors via shared memory.
 --------------------------------
 #P opt=calcfc b97d/6-31g scf=xqc
 --------------------------------
 1/10=4,14=-1,18=20,19=15,26=3,38=1/1,3;
 2/9=110,12=2,17=6,18=5,40=1/2;
 3/5=1,6=6,11=2,16=1,25=1,30=1,71=2,74=-42,140=1/1,2,3;
 4//1;
 5/5=2,8=3,13=1,38=5/2,8;
 8/6=4,10=90,11=11/1;
 11/6=1,8=1,9=11,15=111,16=1/1,2,10;
 10/6=1,13=1/2;
 6/7=2,8=2,9=2,10=2,28=1/1;
 7/10=1,18=20,25=1/1,2,3,16;
 1/10=4,14=-1,18=20,19=15,26=3/3(2);
 2/9=110/2;
 99//99;
 2/9=110/2;
 3/5=1,6=6,11=2,16=1,25=1,30=1,71=1,74=-42/1,2,3;
 4/5=5,16=3,69=1/1;
 5/5=2,8=3,13=1,38=5/2,8;
 7//1,2,3,16;
 1/14=-1,18=20,19=15,26=3/3(-5);
 2/9=110/2;
 6/7=2,8=2,9=2,10=2,19=2,28=1/1;
 99/9=1/99;
 Leave Link    1 at Sat Feb 16 13:47:11 2019, MaxMem=   196608000 cpu:         0.7
 (Enter /cm/shared/c3ddb/gaussian/09.d01/g09/l101.exe)
 ----
 name
 ----
 Symbolic Z-matrix:
 Charge =  0 Multiplicity = 1
 C                     1.08316  -0.01389   0.04401 
 C                     0.60492  -1.12022  -0.83689 
 C                     0.90621  -1.20738  -2.13824 
 H                     0.71765   0.95446  -0.31124 
 H                     0.7079   -0.15994   1.06201 
 H                     2.17634   0.0043    0.09014 
 H                    -0.01904  -1.88601  -0.382 
 H                     1.52595  -0.46331  -2.62919 
 H                     0.53578  -2.03075  -2.74111 
 
 NAtoms=      9 NQM=        9 NQMF=       0 NMMI=      0 NMMIF=      0
                NMic=       0 NMicF=      0.
                    Isotopes and Nuclear Properties:
 (Nuclear quadrupole moments (NQMom) in fm**2, nuclear magnetic moments (NMagM)
  in nuclear magnetons)

  Atom         1           2           3           4           5           6           7           8           9
 IAtWgt=          12          12          12           1           1           1           1           1           1
 AtmWgt=  12.0000000  12.0000000  12.0000000   1.0078250   1.0078250   1.0078250   1.0078250   1.0078250   1.0078250
 NucSpn=           0           0           0           1           1           1           1           1           1
 AtZEff=   0.0000000   0.0000000   0.0000000   0.0000000   0.0000000   0.0000000   0.0000000   0.0000000   0.0000000
 NQMom=    0.0000000   0.0000000   0.0000000   0.0000000   0.0000000   0.0000000   0.0000000   0.0000000   0.0000000
 NMagM=    0.0000000   0.0000000   0.0000000   2.7928460   2.7928460   2.7928460   2.7928460   2.7928460   2.7928460
 AtZNuc=   6.0000000   6.0000000   6.0000000   1.0000000   1.0000000   1.0000000   1.0000000   1.0000000   1.0000000
 Leave Link  101 at Sat Feb 16 13:47:12 2019, MaxMem=   196608000 cpu:         1.2
 (Enter /cm/shared/c3ddb/gaussian/09.d01/g09/l103.exe)

 GradGradGradGradGradGradGradGradGradGradGradGradGradGradGradGradGradGrad
 Berny optimization.
 Initialization pass.
                           ----------------------------
                           !    Initial Parameters    !
                           ! (Angstroms and Degrees)  !
 --------------------------                            --------------------------
 ! Name  Definition              Value          Derivative Info.                !
 --------------------------------------------------------------------------------
 ! R1    R(1,2)                  1.4929         calculate D2E/DX2 analytically  !
 ! R2    R(1,4)                  1.0943         calculate D2E/DX2 analytically  !
 ! R3    R(1,5)                  1.0947         calculate D2E/DX2 analytically  !
 ! R4    R(1,6)                  1.0943         calculate D2E/DX2 analytically  !
 ! R5    R(2,3)                  1.3386         calculate D2E/DX2 analytically  !
 ! R6    R(2,7)                  1.0875         calculate D2E/DX2 analytically  !
 ! R7    R(3,8)                  1.0857         calculate D2E/DX2 analytically  !
 ! R8    R(3,9)                  1.0856         calculate D2E/DX2 analytically  !
 ! A1    A(2,1,4)              110.9295         calculate D2E/DX2 analytically  !
 ! A2    A(2,1,5)              109.878          calculate D2E/DX2 analytically  !
 ! A3    A(2,1,6)              110.9294         calculate D2E/DX2 analytically  !
 ! A4    A(4,1,5)              107.7846         calculate D2E/DX2 analytically  !
 ! A5    A(4,1,6)              109.4299         calculate D2E/DX2 analytically  !
 ! A6    A(5,1,6)              107.7847         calculate D2E/DX2 analytically  !
 ! A7    A(1,2,3)              123.3526         calculate D2E/DX2 analytically  !
 ! A8    A(1,2,7)              117.3118         calculate D2E/DX2 analytically  !
 ! A9    A(3,2,7)              119.3356         calculate D2E/DX2 analytically  !
 ! A10   A(2,3,8)              121.5646         calculate D2E/DX2 analytically  !
 ! A11   A(2,3,9)              120.8266         calculate D2E/DX2 analytically  !
 ! A12   A(8,3,9)              117.6088         calculate D2E/DX2 analytically  !
 ! D1    D(4,1,2,3)             60.9198         calculate D2E/DX2 analytically  !
 ! D2    D(4,1,2,7)           -119.0801         calculate D2E/DX2 analytically  !
 ! D3    D(5,1,2,3)            179.9988         calculate D2E/DX2 analytically  !
 ! D4    D(5,1,2,7)             -0.0011         calculate D2E/DX2 analytically  !
 ! D5    D(6,1,2,3)            -60.9222         calculate D2E/DX2 analytically  !
 ! D6    D(6,1,2,7)            119.0778         calculate D2E/DX2 analytically  !
 ! D7    D(1,2,3,8)              0.0001         calculate D2E/DX2 analytically  !
 ! D8    D(1,2,3,9)           -180.0            calculate D2E/DX2 analytically  !
 ! D9    D(7,2,3,8)           -179.9999         calculate D2E/DX2 analytically  !
 ! D10   D(7,2,3,9)              0.0            calculate D2E/DX2 analytically  !
 --------------------------------------------------------------------------------
 Trust Radius=3.00D-01 FncErr=1.00D-07 GrdErr=1.00D-06
 Number of steps in this run=     40 maximum allowed number of steps=    100.
 GradGradGradGradGradGradGradGradGradGradGradGradGradGradGradGradGradGrad

 Leave Link  103 at Sat Feb 16 13:47:12 2019, MaxMem=   196608000 cpu:         0.1
 (Enter /cm/shared/c3ddb/gaussian/09.d01/g09/l202.exe)
                          Input orientation:                          
 ---------------------------------------------------------------------
 Center     Atomic      Atomic             Coordinates (Angstroms)
 Number     Number       Type             X           Y           Z
 ---------------------------------------------------------------------
      1          6           0        1.083161   -0.013886    0.044008
      2          6           0        0.604916   -1.120221   -0.836886
      3          6           0        0.906205   -1.207380   -2.138239
      4          1           0        0.717646    0.954458   -0.311242
      5          1           0        0.707903   -0.159939    1.062005
      6          1           0        2.176336    0.004302    0.090144
      7          1           0       -0.019045   -1.886007   -0.382003
      8          1           0        1.525947   -0.463308   -2.629187
      9          1           0        0.535776   -2.030749   -2.741110
 ---------------------------------------------------------------------
                    Distance matrix (angstroms):
                    1          2          3          4          5
     1  C    0.000000
     2  C    1.492873   0.000000
     3  C    2.493580   1.338616   0.000000
     4  H    1.094300   2.143199   2.836727   0.000000
     5  H    1.094746   2.130384   3.373132   1.768554   0.000000
     6  H    1.094300   2.143198   2.836740   1.786529   1.768554
     7  H    2.213861   1.087508   2.097853   2.935296   2.364936
     8  H    2.746636   2.119476   1.085704   2.834833   3.792905
     9  H    3.481989   2.111851   1.085637   3.853414   4.241845
                    6          7          8          9
     6  H    0.000000
     7  H    2.935283   0.000000
     8  H    2.834859   3.075859   0.000000
     9  H    3.853423   2.427790   1.857374   0.000000
 Stoichiometry    C3H6
 Framework group  C1[X(C3H6)]
 Deg. of freedom    21
 Full point group                 C1      NOp   1
 Largest Abelian subgroup         C1      NOp   1
 Largest concise Abelian subgroup C1      NOp   1
                         Standard orientation:                         
 ---------------------------------------------------------------------
 Center     Atomic      Atomic             Coordinates (Angstroms)
 Number     Number       Type             X           Y           Z
 ---------------------------------------------------------------------
      1          6           0        1.222325   -0.168221    0.000000
      2          6           0       -0.127546    0.469366    0.000000
      3          6           0       -1.270554   -0.227358    0.000000
      4          1           0        1.363619   -0.784358   -0.893254
      5          1           0        1.998598    0.603705   -0.000021
      6          1           0        1.363634   -0.784325    0.893275
      7          1           0       -0.166048    1.556192    0.000000
      8          1           0       -1.274345   -1.313056    0.000001
      9          1           0       -2.230810    0.279117   -0.000001
 ---------------------------------------------------------------------
 Rotational constants (GHZ):     45.6493999      9.4406434      8.2327410
 Leave Link  202 at Sat Feb 16 13:47:12 2019, MaxMem=   196608000 cpu:         0.3
 (Enter /cm/shared/c3ddb/gaussian/09.d01/g09/l301.exe)
 Standard basis: 6-31G (6D, 7F)
 Ernie: Thresh=  0.10000D-02 Tol=  0.10000D-05 Strict=F.
 There are    39 symmetry adapted cartesian basis functions of A   symmetry.
 There are    39 symmetry adapted basis functions of A   symmetry.
    39 basis functions,    90 primitive gaussians,    39 cartesian basis functions
    12 alpha electrons       12 beta electrons
       nuclear repulsion energy        70.8200820753 Hartrees.
 IExCor= 3630 DFT=T Ex+Corr=B97D ExCW=0 ScaHFX=  0.000000
 ScaDFX=  1.000000  1.000000  1.000000  1.000000 ScalE2=  1.000000  1.000000
 IRadAn=      0 IRanWt=     -1 IRanGd=            0 ICorTp=0 IEmpDi=121
 NAtoms=    9 NActive=    9 NUniq=    9 SFac= 1.00D+00 NAtFMM=   60 NAOKFM=F Big=F
 Integral buffers will be    131072 words long.
 Raffenetti 2 integral format.
 Two-electron integral symmetry is turned on.
 R6Disp:  Grimme-D2 Dispersion energy=       -0.0053341630 Hartrees.
 Nuclear repulsion after empirical dispersion term =       70.8147479124 Hartrees.
 Leave Link  301 at Sat Feb 16 13:47:12 2019, MaxMem=   196608000 cpu:         0.9
 (Enter /cm/shared/c3ddb/gaussian/09.d01/g09/l302.exe)
 NPDir=0 NMtPBC=     1 NCelOv=     1 NCel=       1 NClECP=     1 NCelD=      1
         NCelK=      1 NCelE2=     1 NClLst=     1 CellRange=     0.0.
 One-electron integrals computed using PRISM.
 NBasis=    39 RedAO= T EigKep=  6.92D-03  NBF=    39
 NBsUse=    39 1.00D-06 EigRej= -1.00D+00 NBFU=    39
 Precomputing XC quadrature grid using
 IXCGrd= 4 IRadAn=           0 IRanWt=          -1 IRanGd=           0 AccXCQ= 0.00D+00.
 Generated NRdTot=       0 NPtTot=           0 NUsed=           0 NTot=          32
 NSgBfM=    39    39    39    39    39 MxSgAt=     9 MxSgA2=     9.
 Leave Link  302 at Sat Feb 16 13:47:13 2019, MaxMem=   196608000 cpu:         3.3
 (Enter /cm/shared/c3ddb/gaussian/09.d01/g09/l303.exe)
 DipDrv:  MaxL=1.
 Leave Link  303 at Sat Feb 16 13:47:13 2019, MaxMem=   196608000 cpu:         1.2
 (Enter /cm/shared/c3ddb/gaussian/09.d01/g09/l401.exe)
 ExpMin= 1.61D-01 ExpMax= 3.05D+03 ExpMxC= 4.57D+02 IAcc=1 IRadAn=         1 AccDes= 0.00D+00
 Harris functional with IExCor= 3630 and IRadAn=       1 diagonalized for initial guess.
 HarFok:  IExCor= 3630 AccDes= 0.00D+00 IRadAn=         1 IDoV= 1 UseB2=F ITyADJ=14
 ICtDFT=  3500011 ScaDFX=  1.000000  1.000000  1.000000  1.000000
 FoFCou: FMM=F IPFlag=           0 FMFlag=      100000 FMFlg1=           0
         NFxFlg=           0 DoJE=T BraDBF=F KetDBF=T FulRan=T
         wScrn=  0.000000 ICntrl=     500 IOpCl=  0 I1Cent=   200000004 NGrid=           0
         NMat0=    1 NMatS0=      1 NMatT0=    0 NMatD0=    1 NMtDS0=    0 NMtDT0=    0
 Petite list used in FoFCou.
 Harris En= -117.889220827831    
 JPrj=0 DoOrth=F DoCkMO=F.
 Leave Link  401 at Sat Feb 16 13:47:14 2019, MaxMem=   196608000 cpu:         3.7
 (Enter /cm/shared/c3ddb/gaussian/09.d01/g09/l502.exe)
 Closed shell SCF:
 Using DIIS extrapolation, IDIIS=  1040.
 Integral symmetry usage will be decided dynamically.
 Keep J ints in memory in canonical form, NReq=1176471.
 IVT=       11129 IEndB=       11129 NGot=   196608000 MDV=   196292282
 LenX=   196292282 LenY=   196290320
 Requested convergence on RMS density matrix=1.00D-08 within  64 cycles.
 Requested convergence on MAX density matrix=1.00D-06.
 Requested convergence on             energy=1.00D-06.
 No special actions if energy rises.
 FoFCou: FMM=F IPFlag=           0 FMFlag=           0 FMFlg1=           0
         NFxFlg=           0 DoJE=F BraDBF=F KetDBF=F FulRan=T
         wScrn=  0.000000 ICntrl=     600 IOpCl=  0 I1Cent=           0 NGrid=           0
         NMat0=    1 NMatS0=    780 NMatT0=    0 NMatD0=    1 NMtDS0=    0 NMtDT0=    0
 Symmetry not used in FoFCou.
 Integral accuracy reduced to 1.0D-05 until final iterations.

 Cycle   1  Pass 0  IDiag  1:
 E= -117.679782157242    
 DIIS: error= 4.95D-02 at cycle   1 NSaved=   1.
 NSaved= 1 IEnMin= 1 EnMin= -117.679782157242     IErMin= 1 ErrMin= 4.95D-02
 ErrMax= 4.95D-02  0.00D+00 EMaxC= 1.00D-01 BMatC= 9.46D-02 BMatP= 9.46D-02
 IDIUse=3 WtCom= 5.05D-01 WtEn= 4.95D-01
 Coeff-Com:  0.100D+01
 Coeff-En:   0.100D+01
 Coeff:      0.100D+01
 Gap=     0.198 Goal=   None    Shift=    0.000
 GapD=    0.198 DampG=1.000 DampE=0.500 DampFc=0.5000 IDamp=-1.
 Damping current iteration by 5.00D-01
 RMSDP=1.99D-02 MaxDP=1.39D-01              OVMax= 1.73D-01

 Cycle   2  Pass 0  IDiag  1:
 E= -117.725738073710     Delta-E=       -0.045955916468 Rises=F Damp=T
 DIIS: error= 7.24D-03 at cycle   2 NSaved=   2.
 NSaved= 2 IEnMin= 2 EnMin= -117.725738073710     IErMin= 2 ErrMin= 7.24D-03
 ErrMax= 7.24D-03  0.00D+00 EMaxC= 1.00D-01 BMatC= 3.13D-03 BMatP= 9.46D-02
 IDIUse=3 WtCom= 9.28D-01 WtEn= 7.24D-02
 Coeff-Com:  0.125D+00 0.875D+00
 Coeff-En:   0.214D+00 0.786D+00
 Coeff:      0.132D+00 0.868D+00
 Gap=     0.206 Goal=   None    Shift=    0.000
 RMSDP=3.07D-03 MaxDP=2.52D-02 DE=-4.60D-02 OVMax= 1.03D-01

 Cycle   3  Pass 0  IDiag  1:
 E= -117.792740763856     Delta-E=       -0.067002690147 Rises=F Damp=F
 DIIS: error= 2.28D-03 at cycle   3 NSaved=   3.
 NSaved= 3 IEnMin= 3 EnMin= -117.792740763856     IErMin= 3 ErrMin= 2.28D-03
 ErrMax= 2.28D-03  0.00D+00 EMaxC= 1.00D-01 BMatC= 1.88D-04 BMatP= 3.13D-03
 IDIUse=3 WtCom= 9.77D-01 WtEn= 2.28D-02
 Coeff-Com:  0.240D-01 0.199D+00 0.777D+00
 Coeff-En:   0.000D+00 0.000D+00 0.100D+01
 Coeff:      0.234D-01 0.195D+00 0.782D+00
 Gap=     0.205 Goal=   None    Shift=    0.000
 RMSDP=8.04D-04 MaxDP=1.01D-02 DE=-6.70D-02 OVMax= 1.90D-02

 Cycle   4  Pass 0  IDiag  1:
 E= -117.792613706514     Delta-E=        0.000127057343 Rises=F Damp=F
 DIIS: error= 3.82D-03 at cycle   4 NSaved=   4.
 NSaved= 4 IEnMin= 3 EnMin= -117.792740763856     IErMin= 3 ErrMin= 2.28D-03
 ErrMax= 3.82D-03  0.00D+00 EMaxC= 1.00D-01 BMatC= 3.09D-04 BMatP= 1.88D-04
 IDIUse=3 WtCom= 1.39D-01 WtEn= 8.61D-01
 Coeff-Com:  0.827D-02 0.762D-01 0.554D+00 0.361D+00
 Coeff-En:   0.000D+00 0.000D+00 0.591D+00 0.409D+00
 Coeff:      0.115D-02 0.106D-01 0.586D+00 0.402D+00
 Gap=     0.205 Goal=   None    Shift=    0.000
 RMSDP=4.92D-04 MaxDP=6.61D-03 DE= 1.27D-04 OVMax= 1.36D-02

 Cycle   5  Pass 0  IDiag  1:
 E= -117.792945791719     Delta-E=       -0.000332085205 Rises=F Damp=F
 DIIS: error= 8.69D-04 at cycle   5 NSaved=   5.
 NSaved= 5 IEnMin= 5 EnMin= -117.792945791719     IErMin= 5 ErrMin= 8.69D-04
 ErrMax= 8.69D-04  0.00D+00 EMaxC= 1.00D-01 BMatC= 2.59D-05 BMatP= 1.88D-04
 IDIUse=3 WtCom= 9.91D-01 WtEn= 8.69D-03
 Coeff-Com:  0.371D-02 0.204D-01 0.293D+00 0.242D+00 0.441D+00
 Coeff-En:   0.000D+00 0.000D+00 0.000D+00 0.266D-01 0.973D+00
 Coeff:      0.368D-02 0.202D-01 0.290D+00 0.240D+00 0.445D+00
 Gap=     0.205 Goal=   None    Shift=    0.000
 RMSDP=1.50D-04 MaxDP=1.40D-03 DE=-3.32D-04 OVMax= 2.69D-03

 Cycle   6  Pass 0  IDiag  1:
 E= -117.792973641196     Delta-E=       -0.000027849477 Rises=F Damp=F
 DIIS: error= 1.69D-04 at cycle   6 NSaved=   6.
 NSaved= 6 IEnMin= 6 EnMin= -117.792973641196     IErMin= 6 ErrMin= 1.69D-04
 ErrMax= 1.69D-04  0.00D+00 EMaxC= 1.00D-01 BMatC= 1.05D-06 BMatP= 2.59D-05
 IDIUse=3 WtCom= 9.98D-01 WtEn= 1.69D-03
 Coeff-Com:  0.794D-03-0.910D-03 0.636D-01 0.633D-01 0.223D+00 0.650D+00
 Coeff-En:   0.000D+00 0.000D+00 0.000D+00 0.000D+00 0.000D+00 0.100D+01
 Coeff:      0.793D-03-0.908D-03 0.635D-01 0.632D-01 0.223D+00 0.650D+00
 Gap=     0.205 Goal=   None    Shift=    0.000
 RMSDP=3.47D-05 MaxDP=2.62D-04 DE=-2.78D-05 OVMax= 5.16D-04

 Cycle   7  Pass 0  IDiag  1:
 E= -117.792974871463     Delta-E=       -0.000001230268 Rises=F Damp=F
 DIIS: error= 1.40D-05 at cycle   7 NSaved=   7.
 NSaved= 7 IEnMin= 7 EnMin= -117.792974871463     IErMin= 7 ErrMin= 1.40D-05
 ErrMax= 1.40D-05  0.00D+00 EMaxC= 1.00D-01 BMatC= 1.07D-08 BMatP= 1.05D-06
 IDIUse=1 WtCom= 1.00D+00 WtEn= 0.00D+00
 Coeff-Com:  0.195D-03-0.821D-03 0.134D-01 0.157D-01 0.598D-01 0.215D+00
 Coeff-Com:  0.697D+00
 Coeff:      0.195D-03-0.821D-03 0.134D-01 0.157D-01 0.598D-01 0.215D+00
 Coeff:      0.697D+00
 Gap=     0.205 Goal=   None    Shift=    0.000
 RMSDP=5.71D-06 MaxDP=2.71D-05 DE=-1.23D-06 OVMax= 5.29D-05

 Initial convergence to 1.0D-05 achieved.  Increase integral accuracy.
 Cycle   8  Pass 1  IDiag  1:
 E= -117.793021565733     Delta-E=       -0.000046694269 Rises=F Damp=F
 DIIS: error= 7.48D-06 at cycle   1 NSaved=   1.
 NSaved= 1 IEnMin= 1 EnMin= -117.793021565733     IErMin= 1 ErrMin= 7.48D-06
 ErrMax= 7.48D-06  0.00D+00 EMaxC= 1.00D-01 BMatC= 3.14D-09 BMatP= 3.14D-09
 IDIUse=1 WtCom= 1.00D+00 WtEn= 0.00D+00
 Coeff-Com:  0.100D+01
 Coeff:      0.100D+01
 Gap=     0.205 Goal=   None    Shift=    0.000
 RMSDP=5.71D-06 MaxDP=2.71D-05 DE=-4.67D-05 OVMax= 3.02D-05

 Cycle   9  Pass 1  IDiag  1:
 E= -117.793021570051     Delta-E=       -0.000000004319 Rises=F Damp=F
 DIIS: error= 2.24D-06 at cycle   2 NSaved=   2.
 NSaved= 2 IEnMin= 2 EnMin= -117.793021570051     IErMin= 2 ErrMin= 2.24D-06
 ErrMax= 2.24D-06  0.00D+00 EMaxC= 1.00D-01 BMatC= 2.28D-10 BMatP= 3.14D-09
 IDIUse=1 WtCom= 1.00D+00 WtEn= 0.00D+00
 Coeff-Com:  0.130D+00 0.870D+00
 Coeff:      0.130D+00 0.870D+00
 Gap=     0.205 Goal=   None    Shift=    0.000
 RMSDP=1.09D-06 MaxDP=6.20D-06 DE=-4.32D-09 OVMax= 9.41D-06

 Cycle  10  Pass 1  IDiag  1:
 E= -117.793021570197     Delta-E=       -0.000000000146 Rises=F Damp=F
 DIIS: error= 1.90D-06 at cycle   3 NSaved=   3.
 NSaved= 3 IEnMin= 3 EnMin= -117.793021570197     IErMin= 3 ErrMin= 1.90D-06
 ErrMax= 1.90D-06  0.00D+00 EMaxC= 1.00D-01 BMatC= 1.46D-10 BMatP= 2.28D-10
 IDIUse=1 WtCom= 1.00D+00 WtEn= 0.00D+00
 Coeff-Com:  0.202D-01 0.442D+00 0.538D+00
 Coeff:      0.202D-01 0.442D+00 0.538D+00
 Gap=     0.205 Goal=   None    Shift=    0.000
 RMSDP=4.76D-07 MaxDP=5.43D-06 DE=-1.46D-10 OVMax= 9.49D-06

 Cycle  11  Pass 1  IDiag  1:
 E= -117.793021570327     Delta-E=       -0.000000000130 Rises=F Damp=F
 DIIS: error= 1.50D-06 at cycle   4 NSaved=   4.
 NSaved= 4 IEnMin= 4 EnMin= -117.793021570327     IErMin= 4 ErrMin= 1.50D-06
 ErrMax= 1.50D-06  0.00D+00 EMaxC= 1.00D-01 BMatC= 4.42D-11 BMatP= 1.46D-10
 IDIUse=1 WtCom= 1.00D+00 WtEn= 0.00D+00
 Coeff-Com:  0.297D-02 0.227D+00 0.373D+00 0.397D+00
 Coeff:      0.297D-02 0.227D+00 0.373D+00 0.397D+00
 Gap=     0.205 Goal=   None    Shift=    0.000
 RMSDP=1.80D-07 MaxDP=2.41D-06 DE=-1.30D-10 OVMax= 5.36D-06

 Cycle  12  Pass 1  IDiag  1:
 E= -117.793021570373     Delta-E=       -0.000000000046 Rises=F Damp=F
 DIIS: error= 4.09D-07 at cycle   5 NSaved=   5.
 NSaved= 5 IEnMin= 5 EnMin= -117.793021570373     IErMin= 5 ErrMin= 4.09D-07
 ErrMax= 4.09D-07  0.00D+00 EMaxC= 1.00D-01 BMatC= 3.74D-12 BMatP= 4.42D-11
 IDIUse=1 WtCom= 1.00D+00 WtEn= 0.00D+00
 Coeff-Com: -0.134D-02 0.911D-01 0.180D+00 0.263D+00 0.467D+00
 Coeff:     -0.134D-02 0.911D-01 0.180D+00 0.263D+00 0.467D+00
 Gap=     0.205 Goal=   None    Shift=    0.000
 RMSDP=5.82D-08 MaxDP=6.56D-07 DE=-4.60D-11 OVMax= 1.27D-06

 Cycle  13  Pass 1  IDiag  1:
 E= -117.793021570377     Delta-E=       -0.000000000004 Rises=F Damp=F
 DIIS: error= 4.42D-08 at cycle   6 NSaved=   6.
 NSaved= 6 IEnMin= 6 EnMin= -117.793021570377     IErMin= 6 ErrMin= 4.42D-08
 ErrMax= 4.42D-08  0.00D+00 EMaxC= 1.00D-01 BMatC= 5.03D-14 BMatP= 3.74D-12
 IDIUse=1 WtCom= 1.00D+00 WtEn= 0.00D+00
 Coeff-Com: -0.386D-03 0.204D-01 0.447D-01 0.620D-01 0.172D+00 0.701D+00
 Coeff:     -0.386D-03 0.204D-01 0.447D-01 0.620D-01 0.172D+00 0.701D+00
 Gap=     0.205 Goal=   None    Shift=    0.000
 RMSDP=9.01D-09 MaxDP=5.22D-08 DE=-4.15D-12 OVMax= 1.32D-07

 SCF Done:  E(RB97D) =  -117.793021570     A.U. after   13 cycles
            NFock= 13  Conv=0.90D-08     -V/T= 2.0045
 KE= 1.172626837819D+02 PE=-4.143619559997D+02 EE= 1.084915027351D+02
 Leave Link  502 at Sat Feb 16 13:47:22 2019, MaxMem=   196608000 cpu:        44.3
 (Enter /cm/shared/c3ddb/gaussian/09.d01/g09/l508.exe)
 QCSCF skips out because SCF is already converged.
 Leave Link  508 at Sat Feb 16 13:47:22 2019, MaxMem=   196608000 cpu:         0.0
 (Enter /cm/shared/c3ddb/gaussian/09.d01/g09/l801.exe)
 DoSCS=F DFT=T ScalE2(SS,OS)=  1.000000  1.000000
 Range of M.O.s used for correlation:     1    39
 NBasis=    39 NAE=    12 NBE=    12 NFC=     0 NFV=     0
 NROrb=     39 NOA=    12 NOB=    12 NVA=    27 NVB=    27
 Leave Link  801 at Sat Feb 16 13:47:22 2019, MaxMem=   196608000 cpu:         0.1
 (Enter /cm/shared/c3ddb/gaussian/09.d01/g09/l1101.exe)
 Using compressed storage, NAtomX=     9.
 Will process     10 centers per pass.
 R6Disp: Adding Grimme-D2 dispersion energy 1st derivatives to the gradient.
 Leave Link 1101 at Sat Feb 16 13:47:22 2019, MaxMem=   196608000 cpu:         3.0
 (Enter /cm/shared/c3ddb/gaussian/09.d01/g09/l1102.exe)
 Symmetrizing basis deriv contribution to polar:
 IMax=3 JMax=2 DiffMx= 0.00D+00
 Leave Link 1102 at Sat Feb 16 13:47:23 2019, MaxMem=   196608000 cpu:         0.7
 (Enter /cm/shared/c3ddb/gaussian/09.d01/g09/l1110.exe)
 Forming Gx(P) for the SCF density, NAtomX=     9.
 Integral derivatives from FoFJK, PRISM(SPDF).
 Do as many integral derivatives as possible in FoFJK.
 G2DrvN: MDV=     196607824.
 G2DrvN: will do    10 centers at a time, making    1 passes.
 Calling FoFCou, ICntrl=  3507 FMM=F I1Cent=   0 AccDes= 0.00D+00.
 FoFJK:  IHMeth= 1 ICntrl=    3507 DoSepK=F KAlg= 0 I1Cent=   0 FoldK=F
 IRaf=         0 NMat=   1 IRICut=       1 DoRegI=T DoRafI=F ISym2E= 0.
 FoFCou: FMM=F IPFlag=           0 FMFlag=      100000 FMFlg1=           0
         NFxFlg=           0 DoJE=F BraDBF=F KetDBF=F FulRan=T
         wScrn=  0.000000 ICntrl=    3507 IOpCl=  0 I1Cent=           0 NGrid=           0
         NMat0=    1 NMatS0=      1 NMatT0=    0 NMatD0=    1 NMtDS0=    0 NMtDT0=    0
 Symmetry not used in FoFCou.
 End of G2Drv F.D. properties file   721 does not exist.
 End of G2Drv F.D. properties file   722 does not exist.
 End of G2Drv F.D. properties file   788 does not exist.
 Leave Link 1110 at Sat Feb 16 13:47:25 2019, MaxMem=   196608000 cpu:        15.2
 (Enter /cm/shared/c3ddb/gaussian/09.d01/g09/l1002.exe)
 Minotr:  Closed shell wavefunction.
          IDoAtm=111111111
          Direct CPHF calculation.
          Differentiating once with respect to nuclear coordinates.
          Requested convergence is 1.0D-08 RMS, and 1.0D-07 maximum.
          Secondary convergence is 1.0D-12 RMS, and 1.0D-12 maximum.
          NewPWx=T KeepS1=F KeepF1=F KeepIn=T MapXYZ=F SortEE=F KeepMc=T.
          MDV=     196607867 using IRadAn=       2.
 Generate precomputed XC quadrature information.
 Keep J ints in memory in canonical form, NReq=1166299.
 FoFCou: FMM=F IPFlag=           0 FMFlag=           0 FMFlg1=           0
         NFxFlg=           0 DoJE=F BraDBF=F KetDBF=F FulRan=T
         wScrn=  0.000000 ICntrl=     600 IOpCl=  0 I1Cent=           0 NGrid=           0
         NMat0=    1 NMatS0=    780 NMatT0=    0 NMatD0=    1 NMtDS0=    0 NMtDT0=    0
 Symmetry not used in FoFCou.
          Solving linear equations simultaneously, MaxMat=       0.
          There are    30 degrees of freedom in the 1st order CPHF.  IDoFFX=6 NUNeed=     0.
     24 vectors produced by pass  0 Test12= 1.08D-15 3.33D-09 XBig12= 8.28D-02 1.13D-01.
 AX will form    24 AO Fock derivatives at one time.
     24 vectors produced by pass  1 Test12= 1.08D-15 3.33D-09 XBig12= 2.18D-02 8.55D-02.
     24 vectors produced by pass  2 Test12= 1.08D-15 3.33D-09 XBig12= 5.26D-05 1.71D-03.
     24 vectors produced by pass  3 Test12= 1.08D-15 3.33D-09 XBig12= 1.91D-08 3.92D-05.
      8 vectors produced by pass  4 Test12= 1.08D-15 3.33D-09 XBig12= 1.30D-12 2.47D-07.
 InvSVY:  IOpt=1 It=  1 EMax= 1.55D-15
 Solved reduced A of dimension   104 with    24 vectors.
 End of Minotr F.D. properties file   721 does not exist.
 End of Minotr F.D. properties file   722 does not exist.
 End of Minotr F.D. properties file   788 does not exist.
 Leave Link 1002 at Sat Feb 16 13:47:28 2019, MaxMem=   196608000 cpu:        20.4
 (Enter /cm/shared/c3ddb/gaussian/09.d01/g09/l601.exe)
 Copying SCF densities to generalized density rwf, IOpCl= 0 IROHF=0.

 **********************************************************************

            Population analysis using the SCF density.

 **********************************************************************

 Orbital symmetries:
       Occupied  (A) (A) (A) (A) (A) (A) (A) (A) (A) (A) (A) (A)
       Virtual   (A) (A) (A) (A) (A) (A) (A) (A) (A) (A) (A) (A)
                 (A) (A) (A) (A) (A) (A) (A) (A) (A) (A) (A) (A)
                 (A) (A) (A)
 The electronic state is 1-A.
 Alpha  occ. eigenvalues --   -9.90666  -9.89729  -9.89118  -0.71155  -0.61551
 Alpha  occ. eigenvalues --   -0.49320  -0.41177  -0.37042  -0.36711  -0.31845
 Alpha  occ. eigenvalues --   -0.29829  -0.21140
 Alpha virt. eigenvalues --   -0.00658   0.09129   0.11184   0.13102   0.16336
 Alpha virt. eigenvalues --    0.16833   0.18076   0.26599   0.31986   0.49358
 Alpha virt. eigenvalues --    0.52707   0.52803   0.57393   0.59306   0.65269
 Alpha virt. eigenvalues --    0.67487   0.74006   0.76439   0.83472   0.88045
 Alpha virt. eigenvalues --    0.88284   0.91649   0.92233   0.93692   1.11047
 Alpha virt. eigenvalues --    1.24656   1.28818
          Condensed to atoms (all electrons):
               1          2          3          4          5          6
     1  C    5.121014   0.351391  -0.056714   0.375358   0.366407   0.375358
     2  C    0.351391   4.876038   0.649738  -0.038297  -0.028062  -0.038297
     3  C   -0.056714   0.649738   5.009273  -0.007677   0.005093  -0.007677
     4  H    0.375358  -0.038297  -0.007677   0.560380  -0.030770  -0.026788
     5  H    0.366407  -0.028062   0.005093  -0.030770   0.581217  -0.030770
     6  H    0.375358  -0.038297  -0.007677  -0.026788  -0.030770   0.560380
     7  H   -0.053599   0.379046  -0.041677   0.003635  -0.006582   0.003635
     8  H   -0.009241  -0.046465   0.378874   0.001977   0.000124   0.001977
     9  H    0.005501  -0.027328   0.366751  -0.000050  -0.000228  -0.000050
               7          8          9
     1  C   -0.053599  -0.009241   0.005501
     2  C    0.379046  -0.046465  -0.027328
     3  C   -0.041677   0.378874   0.366751
     4  H    0.003635   0.001977  -0.000050
     5  H   -0.006582   0.000124  -0.000228
     6  H    0.003635   0.001977  -0.000050
     7  H    0.587435   0.005548  -0.007903
     8  H    0.005548   0.582969  -0.040195
     9  H   -0.007903  -0.040195   0.577210
 Mulliken charges:
               1
     1  C   -0.475474
     2  C   -0.077765
     3  C   -0.295983
     4  H    0.162232
     5  H    0.143571
     6  H    0.162233
     7  H    0.130463
     8  H    0.124433
     9  H    0.126292
 Sum of Mulliken charges =   0.00000
 Mulliken charges with hydrogens summed into heavy atoms:
               1
     1  C   -0.007439
     2  C    0.052698
     3  C   -0.045259
 APT charges:
               1
     1  C   -1.150381
     2  C   -0.503831
     3  C   -0.687404
     4  H    0.367877
     5  H    0.415923
     6  H    0.367879
     7  H    0.385113
     8  H    0.339895
     9  H    0.464930
 Sum of APT charges =   0.00000
 APT charges with hydrogens summed into heavy atoms:
               1
     1  C    0.001298
     2  C   -0.118718
     3  C    0.117420
 Electronic spatial extent (au):  <R**2>=            194.8029
 Charge=              0.0000 electrons
 Dipole moment (field-independent basis, Debye):
    X=              0.3794    Y=              0.0042    Z=              0.0000  Tot=              0.3794
 Quadrupole moment (field-independent basis, Debye-Ang):
   XX=            -19.0666   YY=            -18.5916   ZZ=            -21.1563
   XY=              0.0296   XZ=              0.0000   YZ=              0.0000
 Traceless Quadrupole moment (field-independent basis, Debye-Ang):
   XX=              0.5382   YY=              1.0133   ZZ=             -1.5515
   XY=              0.0296   XZ=              0.0000   YZ=              0.0000
 Octapole moment (field-independent basis, Debye-Ang**2):
  XXX=             -1.6024  YYY=              0.5098  ZZZ=              0.0000  XYY=             -0.1850
  XXY=              0.7941  XXZ=              0.0000  XZZ=              1.9904  YZZ=             -0.8282
  YYZ=              0.0000  XYZ=              0.0000
 Hexadecapole moment (field-independent basis, Debye-Ang**3):
 XXXX=           -176.3604 YYYY=            -51.0459 ZZZZ=            -28.2562 XXXY=             -0.3476
 XXXZ=              0.0000 YYYX=              0.9977 YYYZ=              0.0000 ZZZX=              0.0001
 ZZZY=              0.0000 XXYY=            -37.9213 XXZZ=            -36.4078 YYZZ=            -13.7583
 XXYZ=              0.0000 YYXZ=              0.0000 ZZXY=             -1.0000
 N-N= 7.081474791236D+01 E-N=-4.143619571596D+02  KE= 1.172626837819D+02
  Exact polarizability:   0.000   0.000   0.000   0.000   0.000   0.000
 Approx polarizability:  68.011  13.119  49.848   0.000   0.000  25.197
 No NMR shielding tensors so no spin-rotation constants.
 Leave Link  601 at Sat Feb 16 13:47:29 2019, MaxMem=   196608000 cpu:         3.7
 (Enter /cm/shared/c3ddb/gaussian/09.d01/g09/l701.exe)
 Compute integral second derivatives.
 ... and contract with generalized density number  0.
 R6Disp: Adding Grimme-D2 dispersion energy 2nd derivatives to the Hessian.
 Leave Link  701 at Sat Feb 16 13:47:29 2019, MaxMem=   196608000 cpu:         3.3
 (Enter /cm/shared/c3ddb/gaussian/09.d01/g09/l702.exe)
 L702 exits ... SP integral derivatives will be done elsewhere.
 Leave Link  702 at Sat Feb 16 13:47:30 2019, MaxMem=   196608000 cpu:         0.2
 (Enter /cm/shared/c3ddb/gaussian/09.d01/g09/l703.exe)
 Compute integral second derivatives, UseDBF=F ICtDFT=           0.
 Integral derivatives from FoFJK, PRISM(SPDF).
 Calling FoFJK, ICntrl=    100547 FMM=F ISym2X=0 I1Cent= 0 IOpClX= 0 NMat=1 NMatS=1 NMatT=0.
 FoFJK:  IHMeth= 1 ICntrl=  100547 DoSepK=F KAlg= 0 I1Cent=   0 FoldK=F
 IRaf=         0 NMat=   1 IRICut=       1 DoRegI=T DoRafI=F ISym2E= 0.
 FoFCou: FMM=F IPFlag=           0 FMFlag=      100000 FMFlg1=         800
         NFxFlg=           0 DoJE=F BraDBF=F KetDBF=F FulRan=T
         wScrn=  0.000000 ICntrl=  100547 IOpCl=  0 I1Cent=           0 NGrid=           0
         NMat0=    1 NMatS0=      1 NMatT0=    0 NMatD0=    1 NMtDS0=    0 NMtDT0=    0
 Symmetry not used in FoFCou.
 Leave Link  703 at Sat Feb 16 13:47:32 2019, MaxMem=   196608000 cpu:        17.1
 (Enter /cm/shared/c3ddb/gaussian/09.d01/g09/l716.exe)
 Dipole        = 1.49265391D-01 1.65705722D-03 1.10744786D-06
 Polarizability= 0.00000000D+00 0.00000000D+00 0.00000000D+00
                 0.00000000D+00 0.00000000D+00 0.00000000D+00
 ***** Axes restored to original set *****
 -------------------------------------------------------------------
 Center     Atomic                   Forces (Hartrees/Bohr)
 Number     Number              X              Y              Z
 -------------------------------------------------------------------
      1        6          -0.002263046    0.001082615    0.010786890
      2        6          -0.001590064   -0.004747331   -0.005460240
      3        6          -0.002259718   -0.005066878   -0.003781774
      4        1           0.001050251    0.006028024   -0.001046209
      5        1           0.000115989    0.002257206    0.004921961
      6        1           0.005269215    0.003279985    0.000114933
      7        1          -0.002805525   -0.003597971    0.001679194
      8        1           0.002897367    0.003126045   -0.003130423
      9        1          -0.000414470   -0.002361695   -0.004084331
 -------------------------------------------------------------------
 Cartesian Forces:  Max     0.010786890 RMS     0.003863649
 Force constants in Cartesian coordinates: 
                1             2             3             4             5 
      1  0.539812D+00
      2 -0.115876D-01  0.514575D+00
      3 -0.166435D-01 -0.246585D-01  0.544895D+00
      4 -0.874292D-01 -0.458667D-01 -0.267348D-01  0.311004D+00
      5 -0.446974D-01 -0.163755D+00 -0.715471D-01  0.201589D+00  0.465059D+00
      6 -0.239677D-01 -0.672993D-01 -0.137118D+00 -0.156829D+00  0.450311D-01
      7  0.693118D-02 -0.250239D-02 -0.127273D-01 -0.937075D-01 -0.195179D-01
      8  0.362282D-02 -0.231169D-02 -0.306164D-01 -0.196829D-01 -0.928682D-01
      9  0.177311D-02 -0.835450D-02 -0.211633D-01  0.113123D+00 -0.311103D-01
     10 -0.734164D-01  0.798552D-01 -0.289424D-01  0.297201D-02 -0.132298D-01
     11  0.808053D-01 -0.247663D+00  0.804671D-01  0.508783D-02 -0.233063D-01
     12 -0.286867D-01  0.789415D-01 -0.744162D-01  0.639780D-02 -0.211362D-01
     13 -0.796883D-01 -0.120053D-01  0.859954D-01  0.271743D-02 -0.201353D-03
     14 -0.131930D-01 -0.524443D-01  0.379106D-01  0.926344D-02  0.124658D-02
     15  0.831838D-01  0.335942D-01 -0.270982D+00  0.877930D-02  0.581477D-02
     16 -0.309335D+00 -0.673005D-03 -0.722509D-02 -0.808478D-02 -0.210672D-02
     17 -0.202621D-02 -0.411568D-01  0.124284D-02 -0.270487D-01 -0.492711D-02
     18 -0.843413D-02  0.130502D-02 -0.450038D-01 -0.207834D-01 -0.235229D-02
     19  0.150199D-03 -0.616877D-02  0.551808D-02 -0.134228D+00 -0.119243D+00
     20 -0.128585D-01 -0.104899D-01  0.843939D-02 -0.120151D+00 -0.187044D+00
     21 -0.103190D-01 -0.158744D-01  0.561067D-02  0.685141D-01  0.784507D-01
     22 -0.401662D-02  0.305798D-02 -0.191744D-02  0.691043D-03 -0.811800D-02
     23  0.332390D-02 -0.126793D-02  0.390770D-03  0.633431D-05  0.429457D-02
     24 -0.128819D-02  0.135692D-02  0.135788D-02  0.205982D-01  0.246283D-01
     25  0.699246D-02 -0.410947D-02  0.267712D-02  0.606501D-02  0.552489D-02
     26 -0.338924D-02  0.451437D-02 -0.162873D-02 -0.319735D-02  0.130064D-02
     27  0.438236D-02  0.989133D-03 -0.317997D-02 -0.130650D-01 -0.277791D-01
                6             7             8             9            10 
      6  0.813135D+00
      7  0.113514D+00  0.289465D+00
      8 -0.305109D-01  0.233762D+00  0.490726D+00
      9 -0.534548D+00 -0.144245D+00  0.812676D-01  0.814147D+00
     10  0.188358D-02  0.107760D-02  0.143871D-03  0.101192D-02  0.762111D-01
     11  0.490057D-02 -0.158427D-02  0.176247D-02  0.176053D-02 -0.844959D-01
     12  0.461644D-02 -0.126226D-02 -0.125415D-02  0.238890D-03  0.345288D-01
     13 -0.136256D-01 -0.147352D-03 -0.171327D-02 -0.631542D-03  0.388098D-02
     14 -0.285815D-01 -0.237624D-02 -0.355931D-02 -0.167143D-02 -0.113828D-01
     15 -0.190416D-01 -0.220089D-02 -0.408084D-02 -0.866612D-03  0.475291D-02
     16 -0.587833D-03  0.170629D-02  0.279500D-05  0.192362D-02 -0.928032D-02
     17 -0.431470D-02 -0.929802D-04  0.616137D-03  0.168967D-02  0.298234D-01
     18 -0.270597D-02 -0.119925D-03 -0.192434D-02  0.756474D-03 -0.125142D-01
     19  0.706647D-01  0.113403D-02 -0.836437D-02  0.157414D-02 -0.126411D-02
     20  0.817526D-01 -0.178504D-03  0.441858D-02 -0.549865D-02 -0.910258D-03
     21 -0.100407D+00  0.209527D-01  0.242524D-01 -0.117227D-01 -0.104610D-02
     22  0.136515D-02 -0.133049D+00 -0.120754D+00  0.767270D-01  0.381944D-03
     23 -0.489929D-02 -0.122001D+00 -0.184380D+00  0.857112D-01  0.000000D+00
     24 -0.102054D-01  0.737748D-01  0.811788D-01 -0.109236D+00  0.258116D-03
     25  0.758345D-02 -0.734104D-01 -0.870167D-01 -0.512565D-01 -0.562887D-03
     26  0.392146D-02 -0.855084D-01 -0.214404D+00 -0.123794D+00  0.197167D-03
     27 -0.137253D-01 -0.476858D-01 -0.118312D+00 -0.137606D+00  0.674041D-04
               11            12            13            14            15 
     11  0.272722D+00
     12 -0.840209D-01  0.795801D-01
     13  0.233487D-02 -0.117589D-01  0.822121D-01
     14 -0.311083D-02  0.278961D-01  0.163104D-01  0.568992D-01
     15 -0.601526D-03 -0.934237D-02 -0.914918D-01 -0.344498D-01  0.297356D+00
     16 -0.269328D-02  0.132893D-02 -0.101075D-01  0.729865D-03 -0.284950D-02
     17  0.107105D-02 -0.269082D-03 -0.509351D-02 -0.226896D-03 -0.200813D-03
     18 -0.199566D-03  0.114580D-03  0.323497D-01 -0.941939D-05  0.176213D-02
     19  0.120715D-03 -0.418492D-03  0.791678D-03  0.512954D-03 -0.210452D-03
     20 -0.203030D-02 -0.119517D-02  0.509435D-03  0.126264D-02  0.191490D-03
     21 -0.176555D-02 -0.628304D-03 -0.218732D-03  0.178728D-03  0.161770D-02
     22  0.162435D-02  0.400223D-03 -0.118038D-03  0.221348D-03 -0.212903D-03
     23 -0.489088D-03  0.320113D-03  0.205443D-03  0.316009D-05  0.202276D-04
     24 -0.141704D-03 -0.194414D-03 -0.250520D-03 -0.374934D-04  0.500970D-03
     25 -0.119962D-02 -0.529301D-03  0.459018D-03 -0.859556D-04  0.249510D-03
     26  0.104491D-02  0.717786D-03 -0.346751D-03 -0.701901D-04 -0.287703D-03
     27 -0.398968D-03  0.312473D-04 -0.367962D-03 -0.123574D-02 -0.100440D-02
               16            17            18            19            20 
     16  0.335802D+00
     17  0.451575D-02  0.466193D-01
     18  0.939311D-02  0.337372D-02  0.460912D-01
     19 -0.763638D-03 -0.648762D-03 -0.882122D-03  0.130542D+00
     20 -0.812668D-04 -0.228130D-02 -0.575288D-03  0.134090D+00  0.192954D+00
     21 -0.135126D-02 -0.168865D-02 -0.877705D-03 -0.776838D-01 -0.822286D-01
     22 -0.799014D-03 -0.538935D-03  0.573039D-04  0.850917D-02 -0.451117D-02
     23  0.718827D-03  0.952234D-03  0.529823D-03 -0.450962D-02  0.445730D-02
     24 -0.670311D-03 -0.343776D-03 -0.454834D-03  0.309271D-02 -0.216466D-02
     25  0.861957D-03  0.111000D-02  0.933677D-03 -0.487092D-02  0.409135D-02
     26 -0.412961D-03 -0.666617D-03 -0.147661D-03  0.421053D-02 -0.124730D-02
     27  0.383342D-04  0.510795D-03  0.317891D-03 -0.165479D-02  0.127889D-02
               21            22            23            24            25 
     21  0.109502D+00
     22  0.308900D-02  0.130818D+00
     23 -0.217036D-02  0.133249D+00  0.186250D+00
     24 -0.406720D-02 -0.855474D-01 -0.918713D-01  0.113915D+00
     25 -0.193693D-02 -0.241844D-02 -0.109913D-01 -0.996744D-02  0.668842D-01
     26  0.845745D-03 -0.422988D-02 -0.982027D-02 -0.126051D-01  0.926768D-01
     27  0.972988D-03  0.603900D-02  0.119688D-01  0.838395D-02  0.522464D-01
               26            27 
     26  0.219349D+00
     27  0.132978D+00  0.145809D+00
 FormGI is forming the generalized inverse of G from B-inverse, IUseBI=4.
 Force constants in internal coordinates: 
                1             2             3             4             5 
      1  0.335164D+00
      2  0.479079D-02  0.336150D+00
      3  0.197221D-02  0.348749D-03  0.336158D+00
      4  0.479101D-02  0.300775D-03  0.348766D-03  0.336150D+00
      5  0.151448D-01 -0.913470D-03  0.223775D-03 -0.913577D-03  0.629918D+00
      6  0.244042D-02 -0.256394D-04  0.107376D-02 -0.256035D-04  0.429464D-02
      7  0.117467D-02  0.378807D-03 -0.401345D-03  0.378778D-03  0.442383D-02
      8 -0.100972D-02 -0.251367D-04  0.438618D-03 -0.251150D-04  0.292616D-02
      9  0.187862D-01  0.846140D-03 -0.675284D-02 -0.666306D-02 -0.260150D-02
     10  0.216279D-01 -0.601663D-02  0.233304D-02 -0.601664D-02  0.538382D-02
     11  0.187861D-01 -0.666305D-02 -0.675285D-02  0.846232D-03 -0.260142D-02
     12 -0.202328D-01  0.702429D-02  0.641202D-02 -0.140913D-02 -0.109792D-02
     13 -0.210663D-01  0.657321D-02 -0.895331D-03  0.657318D-02  0.210918D-02
     14 -0.202329D-01 -0.140912D-02  0.641207D-02  0.702426D-02 -0.109790D-02
     15  0.233496D-01 -0.300336D-02  0.541137D-02 -0.300311D-02  0.139052D-01
     16  0.698566D-02  0.290868D-02 -0.400233D-02  0.290851D-02 -0.257420D-01
     17 -0.303353D-01  0.946748D-04 -0.140904D-02  0.945945D-04  0.118369D-01
     18 -0.330800D-02  0.252013D-03 -0.946482D-03  0.251979D-03  0.104487D-01
     19  0.371063D-02  0.104137D-03  0.980938D-03  0.104146D-03  0.125163D-01
     20 -0.402628D-03 -0.356150D-03 -0.344562D-04 -0.356125D-03 -0.229650D-01
     21 -0.483732D-03 -0.114744D-02 -0.521374D-02  0.551138D-02 -0.447108D-03
     22 -0.483787D-03 -0.473210D-03 -0.521372D-02  0.483714D-02 -0.447130D-03
     23  0.000000D+00  0.425294D-02  0.000000D+00 -0.425295D-02  0.000000D+00
     24  0.000000D+00  0.492717D-02  0.000000D+00 -0.492719D-02  0.000000D+00
     25  0.483526D-03 -0.551136D-02  0.521376D-02  0.114744D-02  0.447157D-03
     26  0.483471D-03 -0.483712D-02  0.521378D-02  0.473194D-03  0.447135D-03
     27  0.000000D+00  0.140438D-02  0.000000D+00 -0.140439D-02  0.000000D+00
     28  0.000000D+00  0.121564D-02  0.000000D+00 -0.121565D-02  0.000000D+00
     29  0.000000D+00  0.717189D-03  0.000000D+00 -0.717184D-03  0.000000D+00
     30  0.000000D+00  0.528443D-03  0.000000D+00 -0.528441D-03  0.000000D+00
                6             7             8             9            10 
      6  0.351883D+00
      7 -0.354104D-03  0.358747D+00
      8  0.950557D-03 -0.240264D-03  0.358691D+00
      9  0.191150D-02  0.924712D-03 -0.740791D-03  0.106664D+00
     10 -0.236859D-02 -0.258605D-03  0.177692D-02 -0.200443D-01  0.116541D+00
     11  0.191138D-02  0.924655D-03 -0.740743D-03 -0.210108D-01 -0.200441D-01
     12  0.171951D-04 -0.499624D-03 -0.240842D-03 -0.382059D-01 -0.428310D-01
     13 -0.160383D-02 -0.676233D-03  0.215853D-03 -0.392986D-01  0.791554D-02
     14  0.172083D-04 -0.499600D-03 -0.240871D-03  0.841962D-02 -0.428309D-01
     15 -0.128898D-01 -0.406214D-02  0.507651D-02 -0.483274D-02  0.140868D-01
     16  0.497327D-02 -0.618192D-03 -0.145968D-02  0.599983D-02 -0.100100D-01
     17  0.791652D-02  0.468033D-02 -0.361683D-02 -0.116709D-02 -0.407687D-02
     18  0.419170D-02  0.769818D-02 -0.126484D-01  0.230473D-03 -0.138463D-02
     19 -0.335788D-02 -0.137511D-01  0.583127D-02 -0.474103D-03  0.255606D-02
     20 -0.833821D-03  0.605295D-02  0.681715D-02  0.243632D-03 -0.117144D-02
     21  0.294112D-03  0.205671D-03 -0.372105D-03 -0.134941D-03 -0.874873D-02
     22  0.294114D-03  0.205670D-03 -0.372108D-03  0.150656D-02 -0.874866D-02
     23  0.000000D+00  0.000000D+00  0.000000D+00  0.648554D-02  0.000000D+00
     24  0.000000D+00  0.000000D+00  0.000000D+00  0.812705D-02  0.000000D+00
     25 -0.294119D-03 -0.205683D-03  0.372112D-03 -0.903355D-02  0.874864D-02
     26 -0.294117D-03 -0.205684D-03  0.372108D-03 -0.739205D-02  0.874871D-02
     27  0.000000D+00  0.000000D+00  0.000000D+00  0.242080D-02  0.000000D+00
     28  0.000000D+00  0.000000D+00  0.000000D+00  0.335710D-02  0.000000D+00
     29  0.000000D+00  0.000000D+00  0.000000D+00  0.747743D-03  0.000000D+00
     30  0.000000D+00  0.000000D+00  0.000000D+00  0.168405D-02  0.000000D+00
               11            12            13            14            15 
     11  0.106664D+00
     12  0.841957D-02  0.581838D-01
     13 -0.392985D-01  0.821686D-02  0.572030D-01
     14 -0.382059D-01  0.904956D-02  0.821682D-02  0.581837D-01
     15 -0.483228D-02 -0.429681D-02  0.421760D-02 -0.429695D-02  0.118172D+00
     16  0.599926D-02  0.160117D-02 -0.546511D-02  0.160132D-02 -0.590379D-01
     17 -0.116698D-02  0.269564D-02  0.124751D-02  0.269563D-02 -0.591344D-01
     18  0.230479D-03  0.413541D-03  0.107657D-03  0.413541D-03 -0.998833D-02
     19 -0.474093D-03 -0.861687D-03  0.933033D-04 -0.861681D-03  0.113509D-01
     20  0.243613D-03  0.448146D-03 -0.200960D-03  0.448141D-03 -0.136253D-02
     21  0.903359D-02 -0.956157D-02  0.936857D-02 -0.467310D-03 -0.639955D-03
     22  0.739198D-02 -0.103547D-01  0.936860D-02  0.325825D-03 -0.639997D-03
     23 -0.648549D-02  0.113234D-01  0.000000D+00 -0.113234D-01  0.000000D+00
     24 -0.812710D-02  0.105303D-01  0.000000D+00 -0.105303D-01  0.000000D+00
     25  0.134954D-03  0.467315D-03 -0.936856D-02  0.956161D-02  0.640059D-03
     26 -0.150666D-02 -0.325820D-03 -0.936853D-02  0.103547D-01  0.640017D-03
     27 -0.242092D-02 -0.789074D-03  0.000000D+00  0.789090D-03  0.000000D+00
     28 -0.335730D-02 -0.119806D-02  0.000000D+00  0.119805D-02  0.000000D+00
     29 -0.747752D-03  0.193060D-04  0.000000D+00 -0.192921D-04  0.000000D+00
     30 -0.168413D-02 -0.389676D-03  0.000000D+00  0.389670D-03  0.000000D+00
               16            17            18            19            20 
     16  0.945820D-01
     17 -0.355441D-01  0.946785D-01
     18 -0.973649D-03  0.109620D-01  0.827675D-01
     19 -0.167944D-02 -0.967143D-02 -0.463754D-01  0.830222D-01
     20  0.265309D-02 -0.129056D-02 -0.363921D-01 -0.366468D-01  0.730389D-01
     21  0.648831D-03 -0.887248D-05  0.226992D-03 -0.266679D-03  0.396852D-04
     22  0.648828D-03 -0.883423D-05  0.226993D-03 -0.266679D-03  0.396876D-04
     23  0.000000D+00  0.000000D+00  0.000000D+00  0.000000D+00  0.000000D+00
     24  0.000000D+00  0.000000D+00  0.000000D+00  0.000000D+00  0.000000D+00
     25 -0.648940D-03  0.888413D-05 -0.227008D-03  0.266691D-03 -0.396846D-04
     26 -0.648943D-03  0.892238D-05 -0.227008D-03  0.266692D-03 -0.396822D-04
     27  0.000000D+00  0.000000D+00  0.000000D+00  0.000000D+00  0.000000D+00
     28  0.000000D+00  0.000000D+00  0.000000D+00  0.000000D+00  0.000000D+00
     29  0.000000D+00  0.000000D+00  0.000000D+00  0.000000D+00  0.000000D+00
     30  0.000000D+00  0.000000D+00  0.000000D+00  0.000000D+00  0.000000D+00
               21            22            23            24            25 
     21  0.136506D-01
     22  0.919157D-02  0.133116D-01
     23 -0.388189D-02 -0.829651D-02  0.142264D-01
     24 -0.834096D-02 -0.417649D-02  0.981174D-02  0.139762D-01
     25 -0.439060D-02 -0.884965D-02 -0.388191D-02 -0.834096D-02  0.136506D-01
     26 -0.884967D-02 -0.472963D-02 -0.829653D-02 -0.417648D-02  0.919155D-02
     27 -0.225879D-02  0.113582D-02 -0.172115D-02  0.167346D-02 -0.225875D-02
     28 -0.349876D-02  0.240843D-02 -0.288188D-02  0.302531D-02 -0.349868D-02
     29  0.228600D-02 -0.306340D-02  0.277833D-02 -0.257107D-02  0.228602D-02
     30  0.104604D-02 -0.179079D-02  0.161760D-02 -0.121922D-02  0.104608D-02
               26            27            28            29            30 
     26  0.133116D-01
     27  0.113586D-02  0.190838D-01
     28  0.240850D-02  0.539751D-03  0.215462D-01
     29 -0.306338D-02  0.156240D-01 -0.548099D-02  0.210762D-01
     30 -0.179075D-02 -0.292011D-02  0.155255D-01 -0.287555D-04  0.184169D-01
 Leave Link  716 at Sat Feb 16 13:47:33 2019, MaxMem=   196608000 cpu:         0.7
 (Enter /cm/shared/c3ddb/gaussian/09.d01/g09/l103.exe)

 GradGradGradGradGradGradGradGradGradGradGradGradGradGradGradGradGradGrad
 Berny optimization.
 Red2BG is reusing G-inverse.
 Internal  Forces:  Max     0.019431338 RMS     0.005010379
 Search for a local minimum.
 Step number   1 out of a maximum of   40
 All quantities printed in internal units (Hartrees-Bohrs-Radians)
 RMS Force = .50104D-02 SwitMx=.10000D-02 MixMth= 1
 Mixed Optimization -- RFO/linear search
 Second derivative matrix not updated -- analytic derivatives used.
 ITU=  0
     Eigenvalues ---   -0.00244   0.02077   0.03139   0.04036   0.06047
     Eigenvalues ---    0.06177   0.10720   0.11388   0.12675   0.13129
     Eigenvalues ---    0.15002   0.15025   0.18710   0.33694   0.33723
     Eigenvalues ---    0.33796   0.35344   0.35533   0.35896   0.36157
     Eigenvalues ---    0.63455
 Eigenvalue     1 is  -2.44D-03 should be greater than     0.000000 Eigenvector:
                          D6        D2        D5        D1        D4
   1                    0.42037   0.42037   0.40573   0.40573   0.40422
                          D3        D7        D8        D9        A4
   1                    0.38959   0.02978   0.02514   0.01486  -0.01158
 RFO step:  Lambda=-2.43534898D-03 EMin=-2.43534600D-03
 I=     1 Eig=   -2.44D-03 Dot1= -6.30D-08
 I=     1 Stepn= -6.00D-01 RXN=   6.00D-01 EDone=F
 Mixed    1 eigenvectors in step.  Raw Step.Grad=  6.30D-08.
 RFO eigenvector is Hessian eigenvector with negative curvature.
 Taking step of  6.00D-01 in eigenvector direction(s).  Step.Grad=  3.06D-03.
 Linear search not attempted -- first point.
 Iteration  1 RMS(Cart)=  0.09899543 RMS(Int)=  0.02111901
 Iteration  2 RMS(Cart)=  0.02273043 RMS(Int)=  0.00028802
 Iteration  3 RMS(Cart)=  0.00030685 RMS(Int)=  0.00000484
 Iteration  4 RMS(Cart)=  0.00000005 RMS(Int)=  0.00000484
 ITry= 1 IFail=0 DXMaxC= 2.65D-01 DCOld= 1.00D+10 DXMaxT= 3.00D-01 DXLimC= 3.00D+00 Rises=F
 Variable       Old X    -DE/DX   Delta X   Delta X   Delta X     New X
                                 (Linear)    (Quad)   (Total)
    R1        2.82112   0.01943   0.00000   0.00000   0.00000   2.82112
    R2        2.06793   0.00532   0.00000  -0.00233  -0.00233   2.06559
    R3        2.06877   0.00423   0.00000   0.00000   0.00000   2.06877
    R4        2.06793   0.00532   0.00000   0.00233   0.00233   2.07026
    R5        2.52962   0.01102   0.00000   0.00000   0.00000   2.52962
    R6        2.05509   0.00485   0.00000   0.00000   0.00000   2.05509
    R7        2.05168   0.00521   0.00000   0.00000   0.00000   2.05168
    R8        2.05156   0.00420   0.00000   0.00000   0.00000   2.05156
    A1        1.93608   0.00177   0.00000   0.00171   0.00171   1.93779
    A2        1.91773   0.00468   0.00000   0.00000  -0.00001   1.91772
    A3        1.93608   0.00177   0.00000  -0.00171  -0.00172   1.93437
    A4        1.88120  -0.00224   0.00000   0.00695   0.00694   1.88813
    A5        1.90991  -0.00399   0.00000   0.00000   0.00000   1.90991
    A6        1.88120  -0.00224   0.00000  -0.00695  -0.00695   1.87424
    A7        2.15291   0.00514   0.00000   0.00000  -0.00001   2.15290
    A8        2.04748  -0.00217   0.00000   0.00000  -0.00001   2.04747
    A9        2.08280  -0.00297   0.00000   0.00000  -0.00001   2.08279
   A10        2.12170  -0.00027   0.00000   0.00000   0.00000   2.12170
   A11        2.10882   0.00237   0.00000   0.00000   0.00000   2.10882
   A12        2.05266  -0.00211   0.00000   0.00000   0.00000   2.05266
    D1        1.06325  -0.00132   0.00000  -0.24344  -0.24344   0.81981
    D2       -2.07834  -0.00132   0.00000  -0.25222  -0.25223  -2.33057
    D3        3.14157   0.00000   0.00000  -0.23375  -0.23375   2.90782
    D4       -0.00002   0.00000   0.00000  -0.24253  -0.24253  -0.24255
    D5       -1.06329   0.00132   0.00000  -0.24344  -0.24344  -1.30673
    D6        2.07830   0.00132   0.00000  -0.25222  -0.25222   1.82608
    D7        0.00000   0.00000   0.00000  -0.01787  -0.01787  -0.01786
    D8       -3.14159   0.00000   0.00000  -0.01508  -0.01508   3.12651
    D9       -3.14159   0.00000   0.00000  -0.00892  -0.00892   3.13268
   D10        0.00000   0.00000   0.00000  -0.00613  -0.00613  -0.00613
         Item               Value     Threshold  Converged?
 Maximum Force            0.019431     0.000450     NO 
 RMS     Force            0.005010     0.000300     NO 
 Maximum Displacement     0.265405     0.001800     NO 
 RMS     Displacement     0.120330     0.001200     NO 
 Predicted change in Energy=-4.384252D-04
 Lowest energy point so far.  Saving SCF results.
 GradGradGradGradGradGradGradGradGradGradGradGradGradGradGradGradGradGrad

 Leave Link  103 at Sat Feb 16 13:47:35 2019, MaxMem=   196608000 cpu:        15.8
 (Enter /cm/shared/c3ddb/gaussian/09.d01/g09/l202.exe)
                          Input orientation:                          
 ---------------------------------------------------------------------
 Center     Atomic      Atomic             Coordinates (Angstroms)
 Number     Number       Type             X           Y           Z
 ---------------------------------------------------------------------
      1          6           0        1.089843   -0.017605    0.045279
      2          6           0        0.636970   -1.139449   -0.829386
      3          6           0        0.871909   -1.186825   -2.146372
      4          1           0        0.852487    0.950268   -0.403803
      5          1           0        0.587198   -0.076236    1.016041
      6          1           0        2.167854   -0.078830    0.230590
      7          1           0        0.096960   -1.955451   -0.354829
      8          1           0        1.400186   -0.388455   -2.658507
      9          1           0        0.535437   -2.030147   -2.741521
 ---------------------------------------------------------------------
                    Distance matrix (angstroms):
                    1          2          3          4          5
     1  C    0.000000
     2  C    1.492872   0.000000
     3  C    2.493573   1.338616   0.000000
     4  H    1.093065   2.143476   2.757552   0.000000
     5  H    1.094746   2.130377   3.363826   1.772018   0.000000
     6  H    1.095535   2.142912   2.925248   1.786530   1.765053
     7  H    2.213853   1.087508   2.097846   3.002736   2.377197
     8  H    2.746689   2.119475   1.085704   2.678777   3.776339
     9  H    3.481946   2.111850   1.085637   3.801095   4.235531
                    6          7          8          9
     6  H    0.000000
     7  H    2.855349   0.000000
     8  H    3.005340   3.075842   0.000000
     9  H    3.912272   2.427785   1.857373   0.000000
 Stoichiometry    C3H6
 Framework group  C1[X(C3H6)]
 Deg. of freedom    21
 Full point group                 C1      NOp   1
 RotChk:  IX=0 Diff= 1.34D-01
 Largest Abelian subgroup         C1      NOp   1
 Largest concise Abelian subgroup C1      NOp   1
                         Standard orientation:                         
 ---------------------------------------------------------------------
 Center     Atomic      Atomic             Coordinates (Angstroms)
 Number     Number       Type             X           Y           Z
 ---------------------------------------------------------------------
      1          6           0        1.222253   -0.168539    0.000866
      2          6           0       -0.127489    0.469298   -0.004390
      3          6           0       -1.270629   -0.227182    0.001654
      4          1           0        1.279306   -0.971867   -0.738187
      5          1           0        1.986682    0.575867   -0.244037
      6          1           0        1.460415   -0.568224    0.992697
      7          1           0       -0.165775    1.556131   -0.005122
      8          1           0       -1.274705   -1.312854   -0.005658
      9          1           0       -2.230732    0.279488    0.011526
 ---------------------------------------------------------------------
 Rotational constants (GHZ):     45.6584548      9.4410050      8.2318261
 Leave Link  202 at Sat Feb 16 13:47:35 2019, MaxMem=   196608000 cpu:         0.5
 (Enter /cm/shared/c3ddb/gaussian/09.d01/g09/l301.exe)
 Standard basis: 6-31G (6D, 7F)
 Ernie: Thresh=  0.10000D-02 Tol=  0.10000D-05 Strict=F.
 There are    39 symmetry adapted cartesian basis functions of A   symmetry.
 There are    39 symmetry adapted basis functions of A   symmetry.
    39 basis functions,    90 primitive gaussians,    39 cartesian basis functions
    12 alpha electrons       12 beta electrons
       nuclear repulsion energy        70.8217617139 Hartrees.
 IExCor= 3630 DFT=T Ex+Corr=B97D ExCW=0 ScaHFX=  0.000000
 ScaDFX=  1.000000  1.000000  1.000000  1.000000 ScalE2=  1.000000  1.000000
 IRadAn=      0 IRanWt=     -1 IRanGd=            0 ICorTp=0 IEmpDi=121
 NAtoms=    9 NActive=    9 NUniq=    9 SFac= 1.00D+00 NAtFMM=   60 NAOKFM=F Big=F
 Integral buffers will be    131072 words long.
 Raffenetti 2 integral format.
 Two-electron integral symmetry is turned on.
 R6Disp:  Grimme-D2 Dispersion energy=       -0.0053429296 Hartrees.
 Nuclear repulsion after empirical dispersion term =       70.8164187843 Hartrees.
 Leave Link  301 at Sat Feb 16 13:47:35 2019, MaxMem=   196608000 cpu:         0.6
 (Enter /cm/shared/c3ddb/gaussian/09.d01/g09/l302.exe)
 NPDir=0 NMtPBC=     1 NCelOv=     1 NCel=       1 NClECP=     1 NCelD=      1
         NCelK=      1 NCelE2=     1 NClLst=     1 CellRange=     0.0.
 One-electron integrals computed using PRISM.
 NBasis=    39 RedAO= T EigKep=  6.84D-03  NBF=    39
 NBsUse=    39 1.00D-06 EigRej= -1.00D+00 NBFU=    39
 Precomputing XC quadrature grid using
 IXCGrd= 4 IRadAn=           0 IRanWt=          -1 IRanGd=           0 AccXCQ= 0.00D+00.
 Generated NRdTot=       0 NPtTot=           0 NUsed=           0 NTot=          32
 NSgBfM=    39    39    39    39    39 MxSgAt=     9 MxSgA2=     9.
 Leave Link  302 at Sat Feb 16 13:47:36 2019, MaxMem=   196608000 cpu:         2.5
 (Enter /cm/shared/c3ddb/gaussian/09.d01/g09/l303.exe)
 DipDrv:  MaxL=1.
 Leave Link  303 at Sat Feb 16 13:47:36 2019, MaxMem=   196608000 cpu:         0.9
 (Enter /cm/shared/c3ddb/gaussian/09.d01/g09/l401.exe)
 Initial guess from the checkpoint file:  "check.chk"
 B after Tr=     0.000000    0.000000    0.000000
         Rot=    0.999214    0.039373   -0.004679    0.000069 Ang=   4.54 deg.
 Guess basis will be translated and rotated to current coordinates.
 JPrj=2 DoOrth=T DoCkMO=T.
 Generating alternative initial guess.
 ExpMin= 1.61D-01 ExpMax= 3.05D+03 ExpMxC= 4.57D+02 IAcc=1 IRadAn=         1 AccDes= 0.00D+00
 Harris functional with IExCor= 3630 and IRadAn=       1 diagonalized for initial guess.
 HarFok:  IExCor= 3630 AccDes= 0.00D+00 IRadAn=         1 IDoV= 1 UseB2=F ITyADJ=14
 ICtDFT=  3500011 ScaDFX=  1.000000  1.000000  1.000000  1.000000
 FoFCou: FMM=F IPFlag=           0 FMFlag=      100000 FMFlg1=           0
         NFxFlg=           0 DoJE=T BraDBF=F KetDBF=T FulRan=T
         wScrn=  0.000000 ICntrl=     500 IOpCl=  0 I1Cent=   200000004 NGrid=           0
         NMat0=    1 NMatS0=      1 NMatT0=    0 NMatD0=    1 NMtDS0=    0 NMtDT0=    0
 Petite list used in FoFCou.
 Harris En= -117.889518870186    
 Leave Link  401 at Sat Feb 16 13:47:37 2019, MaxMem=   196608000 cpu:         6.3
 (Enter /cm/shared/c3ddb/gaussian/09.d01/g09/l502.exe)
 Closed shell SCF:
 Using DIIS extrapolation, IDIIS=  1040.
 Integral symmetry usage will be decided dynamically.
 Keep J ints in memory in canonical form, NReq=1176471.
 IVT=       11129 IEndB=       11129 NGot=   196608000 MDV=   196292282
 LenX=   196292282 LenY=   196290320
 Requested convergence on RMS density matrix=1.00D-08 within  64 cycles.
 Requested convergence on MAX density matrix=1.00D-06.
 Requested convergence on             energy=1.00D-06.
 No special actions if energy rises.
 FoFCou: FMM=F IPFlag=           0 FMFlag=           0 FMFlg1=           0
         NFxFlg=           0 DoJE=F BraDBF=F KetDBF=F FulRan=T
         wScrn=  0.000000 ICntrl=     600 IOpCl=  0 I1Cent=           0 NGrid=           0
         NMat0=    1 NMatS0=    780 NMatT0=    0 NMatD0=    1 NMtDS0=    0 NMtDT0=    0
 Symmetry not used in FoFCou.
 Integral accuracy reduced to 1.0D-05 until final iterations.

 Cycle   1  Pass 0  IDiag  1:
 E= -117.785275323329    
 DIIS: error= 8.74D-03 at cycle   1 NSaved=   1.
 NSaved= 1 IEnMin= 1 EnMin= -117.785275323329     IErMin= 1 ErrMin= 8.74D-03
 ErrMax= 8.74D-03  0.00D+00 EMaxC= 1.00D-01 BMatC= 3.13D-03 BMatP= 3.13D-03
 IDIUse=3 WtCom= 9.13D-01 WtEn= 8.74D-02
 Coeff-Com:  0.100D+01
 Coeff-En:   0.100D+01
 Coeff:      0.100D+01
 Gap=     0.540 Goal=   None    Shift=    0.000
 GapD=    0.540 DampG=2.000 DampE=1.000 DampFc=2.0000 IDamp=-1.
 RMSDP=2.91D-03 MaxDP=2.29D-02              OVMax= 4.20D-02

 Cycle   2  Pass 0  IDiag  1:
 E= -117.793431720604     Delta-E=       -0.008156397274 Rises=F Damp=F
 DIIS: error= 2.98D-04 at cycle   2 NSaved=   2.
 NSaved= 2 IEnMin= 2 EnMin= -117.793431720604     IErMin= 2 ErrMin= 2.98D-04
 ErrMax= 2.98D-04  0.00D+00 EMaxC= 1.00D-01 BMatC= 4.59D-06 BMatP= 3.13D-03
 IDIUse=3 WtCom= 9.97D-01 WtEn= 2.98D-03
 Coeff-Com:  0.192D-02 0.998D+00
 Coeff-En:   0.000D+00 0.100D+01
 Coeff:      0.192D-02 0.998D+00
 Gap=     0.206 Goal=   None    Shift=    0.000
 RMSDP=2.01D-04 MaxDP=1.86D-03 DE=-8.16D-03 OVMax= 1.97D-03

 Cycle   3  Pass 0  IDiag  1:
 E= -117.793430570998     Delta-E=        0.000001149606 Rises=F Damp=F
 DIIS: error= 4.11D-04 at cycle   3 NSaved=   3.
 NSaved= 3 IEnMin= 2 EnMin= -117.793431720604     IErMin= 2 ErrMin= 2.98D-04
 ErrMax= 4.11D-04  0.00D+00 EMaxC= 1.00D-01 BMatC= 7.22D-06 BMatP= 4.59D-06
 IDIUse=3 WtCom= 3.30D-01 WtEn= 6.70D-01
 Coeff-Com:  0.149D-03 0.562D+00 0.437D+00
 Coeff-En:   0.000D+00 0.541D+00 0.459D+00
 Coeff:      0.491D-04 0.548D+00 0.452D+00
 Gap=     0.206 Goal=   None    Shift=    0.000
 RMSDP=9.25D-05 MaxDP=9.30D-04 DE= 1.15D-06 OVMax= 1.96D-03

 Cycle   4  Pass 0  IDiag  1:
 E= -117.793437241725     Delta-E=       -0.000006670727 Rises=F Damp=F
 DIIS: error= 2.83D-04 at cycle   4 NSaved=   4.
 NSaved= 4 IEnMin= 4 EnMin= -117.793437241725     IErMin= 4 ErrMin= 2.83D-04
 ErrMax= 2.83D-04  0.00D+00 EMaxC= 1.00D-01 BMatC= 1.40D-06 BMatP= 4.59D-06
 IDIUse=3 WtCom= 9.97D-01 WtEn= 2.83D-03
 Coeff-Com: -0.341D-04 0.265D+00 0.314D+00 0.422D+00
 Coeff-En:   0.000D+00 0.000D+00 0.175D+00 0.825D+00
 Coeff:     -0.340D-04 0.264D+00 0.313D+00 0.423D+00
 Gap=     0.206 Goal=   None    Shift=    0.000
 RMSDP=3.56D-05 MaxDP=4.62D-04 DE=-6.67D-06 OVMax= 1.02D-03

 Cycle   5  Pass 0  IDiag  1:
 E= -117.793438754066     Delta-E=       -0.000001512341 Rises=F Damp=F
 DIIS: error= 7.16D-05 at cycle   5 NSaved=   5.
 NSaved= 5 IEnMin= 5 EnMin= -117.793438754066     IErMin= 5 ErrMin= 7.16D-05
 ErrMax= 7.16D-05  0.00D+00 EMaxC= 1.00D-01 BMatC= 1.41D-07 BMatP= 1.40D-06
 IDIUse=1 WtCom= 1.00D+00 WtEn= 0.00D+00
 Coeff-Com: -0.197D-04 0.793D-01 0.136D+00 0.283D+00 0.501D+00
 Coeff:     -0.197D-04 0.793D-01 0.136D+00 0.283D+00 0.501D+00
 Gap=     0.206 Goal=   None    Shift=    0.000
 RMSDP=1.00D-05 MaxDP=1.08D-04 DE=-1.51D-06 OVMax= 2.21D-04

 Cycle   6  Pass 0  IDiag  1:
 E= -117.793438914534     Delta-E=       -0.000000160468 Rises=F Damp=F
 DIIS: error= 3.07D-06 at cycle   6 NSaved=   6.
 NSaved= 6 IEnMin= 6 EnMin= -117.793438914534     IErMin= 6 ErrMin= 3.07D-06
 ErrMax= 3.07D-06  0.00D+00 EMaxC= 1.00D-01 BMatC= 6.17D-10 BMatP= 1.41D-07
 IDIUse=1 WtCom= 1.00D+00 WtEn= 0.00D+00
 Coeff-Com: -0.642D-05 0.983D-02 0.221D-01 0.527D-01 0.124D+00 0.792D+00
 Coeff:     -0.642D-05 0.983D-02 0.221D-01 0.527D-01 0.124D+00 0.792D+00
 Gap=     0.206 Goal=   None    Shift=    0.000
 RMSDP=1.47D-06 MaxDP=7.47D-06 DE=-1.60D-07 OVMax= 1.03D-05

 Initial convergence to 1.0D-05 achieved.  Increase integral accuracy.
 Cycle   7  Pass 1  IDiag  1:
 E= -117.793458942006     Delta-E=       -0.000020027471 Rises=F Damp=F
 DIIS: error= 7.31D-06 at cycle   1 NSaved=   1.
 NSaved= 1 IEnMin= 1 EnMin= -117.793458942006     IErMin= 1 ErrMin= 7.31D-06
 ErrMax= 7.31D-06  0.00D+00 EMaxC= 1.00D-01 BMatC= 3.59D-09 BMatP= 3.59D-09
 IDIUse=1 WtCom= 1.00D+00 WtEn= 0.00D+00
 Coeff-Com:  0.100D+01
 Coeff:      0.100D+01
 Gap=     0.206 Goal=   None    Shift=    0.000
 RMSDP=1.47D-06 MaxDP=7.47D-06 DE=-2.00D-05 OVMax= 2.97D-05

 Cycle   8  Pass 1  IDiag  1:
 E= -117.793458946591     Delta-E=       -0.000000004586 Rises=F Damp=F
 DIIS: error= 3.75D-06 at cycle   2 NSaved=   2.
 NSaved= 2 IEnMin= 2 EnMin= -117.793458946591     IErMin= 2 ErrMin= 3.75D-06
 ErrMax= 3.75D-06  0.00D+00 EMaxC= 1.00D-01 BMatC= 7.27D-10 BMatP= 3.59D-09
 IDIUse=1 WtCom= 1.00D+00 WtEn= 0.00D+00
 Coeff-Com:  0.243D+00 0.757D+00
 Coeff:      0.243D+00 0.757D+00
 Gap=     0.206 Goal=   None    Shift=    0.000
 RMSDP=1.20D-06 MaxDP=9.54D-06 DE=-4.59D-09 OVMax= 1.10D-05

 Cycle   9  Pass 1  IDiag  1:
 E= -117.793458946987     Delta-E=       -0.000000000396 Rises=F Damp=F
 DIIS: error= 2.70D-06 at cycle   3 NSaved=   3.
 NSaved= 3 IEnMin= 3 EnMin= -117.793458946987     IErMin= 3 ErrMin= 2.70D-06
 ErrMax= 2.70D-06  0.00D+00 EMaxC= 1.00D-01 BMatC= 3.85D-10 BMatP= 7.27D-10
 IDIUse=1 WtCom= 1.00D+00 WtEn= 0.00D+00
 Coeff-Com:  0.118D-01 0.420D+00 0.568D+00
 Coeff:      0.118D-01 0.420D+00 0.568D+00
 Gap=     0.206 Goal=   None    Shift=    0.000
 RMSDP=5.28D-07 MaxDP=4.51D-06 DE=-3.96D-10 OVMax= 4.98D-06

 Cycle  10  Pass 1  IDiag  1:
 E= -117.793458947397     Delta-E=       -0.000000000410 Rises=F Damp=F
 DIIS: error= 3.62D-07 at cycle   4 NSaved=   4.
 NSaved= 4 IEnMin= 4 EnMin= -117.793458947397     IErMin= 4 ErrMin= 3.62D-07
 ErrMax= 3.62D-07  0.00D+00 EMaxC= 1.00D-01 BMatC= 4.32D-12 BMatP= 3.85D-10
 IDIUse=1 WtCom= 1.00D+00 WtEn= 0.00D+00
 Coeff-Com: -0.882D-03 0.140D+00 0.218D+00 0.642D+00
 Coeff:     -0.882D-03 0.140D+00 0.218D+00 0.642D+00
 Gap=     0.206 Goal=   None    Shift=    0.000
 RMSDP=1.18D-07 MaxDP=1.00D-06 DE=-4.10D-10 OVMax= 2.41D-06

 Cycle  11  Pass 1  IDiag  1:
 E= -117.793458947400     Delta-E=       -0.000000000003 Rises=F Damp=F
 DIIS: error= 4.01D-07 at cycle   5 NSaved=   5.
 NSaved= 5 IEnMin= 5 EnMin= -117.793458947400     IErMin= 4 ErrMin= 3.62D-07
 ErrMax= 4.01D-07  0.00D+00 EMaxC= 1.00D-01 BMatC= 3.25D-12 BMatP= 4.32D-12
 IDIUse=1 WtCom= 1.00D+00 WtEn= 0.00D+00
 Coeff-Com: -0.129D-02 0.791D-01 0.127D+00 0.466D+00 0.329D+00
 Coeff:     -0.129D-02 0.791D-01 0.127D+00 0.466D+00 0.329D+00
 Gap=     0.206 Goal=   None    Shift=    0.000
 RMSDP=4.52D-08 MaxDP=6.10D-07 DE=-2.67D-12 OVMax= 1.28D-06

 Cycle  12  Pass 1  IDiag  1:
 E= -117.793458947404     Delta-E=       -0.000000000004 Rises=F Damp=F
 DIIS: error= 4.68D-08 at cycle   6 NSaved=   6.
 NSaved= 6 IEnMin= 6 EnMin= -117.793458947404     IErMin= 6 ErrMin= 4.68D-08
 ErrMax= 4.68D-08  0.00D+00 EMaxC= 1.00D-01 BMatC= 7.60D-14 BMatP= 3.25D-12
 IDIUse=1 WtCom= 1.00D+00 WtEn= 0.00D+00
 Coeff-Com: -0.710D-03 0.300D-01 0.496D-01 0.209D+00 0.177D+00 0.535D+00
 Coeff:     -0.710D-03 0.300D-01 0.496D-01 0.209D+00 0.177D+00 0.535D+00
 Gap=     0.206 Goal=   None    Shift=    0.000
 RMSDP=8.38D-09 MaxDP=9.91D-08 DE=-3.67D-12 OVMax= 1.77D-07

 SCF Done:  E(RB97D) =  -117.793458947     A.U. after   12 cycles
            NFock= 12  Conv=0.84D-08     -V/T= 2.0045
 KE= 1.172613435261D+02 PE=-4.143615291672D+02 EE= 1.084903079094D+02
 Leave Link  502 at Sat Feb 16 13:47:44 2019, MaxMem=   196608000 cpu:        38.3
 (Enter /cm/shared/c3ddb/gaussian/09.d01/g09/l508.exe)
 QCSCF skips out because SCF is already converged.
 Leave Link  508 at Sat Feb 16 13:47:44 2019, MaxMem=   196608000 cpu:         0.0
 (Enter /cm/shared/c3ddb/gaussian/09.d01/g09/l701.exe)
 Compute integral first derivatives.
 ... and contract with generalized density number  0.
 R6Disp: Adding Grimme-D2 dispersion energy 1st derivatives to the gradient.
 Leave Link  701 at Sat Feb 16 13:47:44 2019, MaxMem=   196608000 cpu:         2.6
 (Enter /cm/shared/c3ddb/gaussian/09.d01/g09/l702.exe)
 L702 exits ... SP integral derivatives will be done elsewhere.
 Leave Link  702 at Sat Feb 16 13:47:44 2019, MaxMem=   196608000 cpu:         0.2
 (Enter /cm/shared/c3ddb/gaussian/09.d01/g09/l703.exe)
 Compute integral first derivatives, UseDBF=F ICtDFT=           0.
 Integral derivatives from FoFJK, PRISM(SPDF).
 Calling FoFJK, ICntrl=      2527 FMM=F ISym2X=0 I1Cent= 0 IOpClX= 0 NMat=1 NMatS=1 NMatT=0.
 FoFJK:  IHMeth= 1 ICntrl=    2527 DoSepK=F KAlg= 0 I1Cent=   0 FoldK=F
 IRaf=         0 NMat=   1 IRICut=       1 DoRegI=T DoRafI=F ISym2E= 0.
 FoFCou: FMM=F IPFlag=           0 FMFlag=      100000 FMFlg1=         800
         NFxFlg=           0 DoJE=F BraDBF=F KetDBF=F FulRan=T
         wScrn=  0.000000 ICntrl=    2527 IOpCl=  0 I1Cent=           0 NGrid=           0
         NMat0=    1 NMatS0=      1 NMatT0=    0 NMatD0=    1 NMtDS0=    0 NMtDT0=    0
 Symmetry not used in FoFCou.
 Leave Link  703 at Sat Feb 16 13:47:45 2019, MaxMem=   196608000 cpu:         4.9
 (Enter /cm/shared/c3ddb/gaussian/09.d01/g09/l716.exe)
 Dipole        = 1.49741392D-01 6.64051500D-03 1.22048792D-02
 ***** Axes restored to original set *****
 -------------------------------------------------------------------
 Center     Atomic                   Forces (Hartrees/Bohr)
 Number     Number              X              Y              Z
 -------------------------------------------------------------------
      1        6          -0.003131366    0.001123959    0.009997226
      2        6          -0.001014013   -0.004223250   -0.005133239
      3        6          -0.002726822   -0.004802264   -0.003960381
      4        1           0.002052422    0.005850923   -0.001635444
      5        1          -0.000853275    0.002807687    0.004792470
      6        1           0.005378117    0.002406800    0.001100152
      7        1          -0.001649494   -0.004218266    0.002113789
      8        1           0.002422099    0.003393861   -0.003162105
      9        1          -0.000477667   -0.002339450   -0.004112469
 -------------------------------------------------------------------
 Cartesian Forces:  Max     0.009997226 RMS     0.003781123
 Leave Link  716 at Sat Feb 16 13:47:45 2019, MaxMem=   196608000 cpu:         0.2
 (Enter /cm/shared/c3ddb/gaussian/09.d01/g09/l103.exe)

 GradGradGradGradGradGradGradGradGradGradGradGradGradGradGradGradGradGrad
 Berny optimization.
 Using GEDIIS/GDIIS optimizer.
 FormGI is forming the generalized inverse of G from B-inverse, IUseBI=4.
 Internal  Forces:  Max     0.018557775 RMS     0.004910874
 Search for a local minimum.
 Step number   2 out of a maximum of   40
 All quantities printed in internal units (Hartrees-Bohrs-Radians)
 RMS Force = .49109D-02 SwitMx=.10000D-02 MixMth= 1
 Mixed Optimization -- RFO/linear search
 Update second derivatives using D2CorX and points    1    2
 ITU=  0  0
 Use linear search instead of GDIIS.
     Eigenvalues ---   -0.00233   0.02076   0.03139   0.04036   0.06046
     Eigenvalues ---    0.06177   0.10719   0.11386   0.12675   0.13129
     Eigenvalues ---    0.15001   0.15024   0.18699   0.33694   0.33723
     Eigenvalues ---    0.33779   0.35334   0.35454   0.35896   0.36157
     Eigenvalues ---    0.63455
 Eigenvalue     1 is  -2.33D-03 should be greater than     0.000000 Eigenvector:
                          D6        D2        D5        D1        D4
   1                   -0.41954  -0.41824  -0.40747  -0.40617  -0.40361
                          D3        D7        D8        D9        A6
   1                   -0.39154  -0.02712  -0.02182  -0.01480  -0.01147
 RFO step:  Lambda=-3.53032864D-03 EMin=-2.33419455D-03
 Skip linear search -- no minimum in search direction.
 Iteration  1 RMS(Cart)=  0.10301257 RMS(Int)=  0.04866096
 Iteration  2 RMS(Cart)=  0.05281216 RMS(Int)=  0.00154306
 Iteration  3 RMS(Cart)=  0.00167631 RMS(Int)=  0.00009412
 Iteration  4 RMS(Cart)=  0.00000196 RMS(Int)=  0.00009411
 Iteration  5 RMS(Cart)=  0.00000000 RMS(Int)=  0.00009411
 ITry= 1 IFail=0 DXMaxC= 3.71D-01 DCOld= 1.00D+10 DXMaxT= 3.00D-01 DXLimC= 3.00D+00 Rises=F
 Variable       Old X    -DE/DX   Delta X   Delta X   Delta X     New X
                                 (Linear)    (Quad)   (Total)
    R1        2.82112   0.01856   0.00000   0.04397   0.04397   2.86509
    R2        2.06559   0.00541   0.00000   0.01474   0.01474   2.08034
    R3        2.06877   0.00449   0.00000   0.01199   0.01199   2.08076
    R4        2.07026   0.00534   0.00000   0.02004   0.02004   2.09030
    R5        2.52962   0.01105   0.00000   0.01427   0.01427   2.54389
    R6        2.05509   0.00491   0.00000   0.01475   0.01475   2.06984
    R7        2.05168   0.00516   0.00000   0.01490   0.01490   2.06658
    R8        2.05156   0.00422   0.00000   0.01113   0.01113   2.06269
    A1        1.93779   0.00154   0.00000   0.00577   0.00558   1.94337
    A2        1.91772   0.00466   0.00000   0.02534   0.02510   1.94283
    A3        1.93437   0.00170   0.00000   0.00437   0.00429   1.93866
    A4        1.88813  -0.00216   0.00000   0.00783   0.00751   1.89564
    A5        1.90991  -0.00380   0.00000  -0.03489  -0.03492   1.87500
    A6        1.87424  -0.00218   0.00000  -0.00896  -0.00908   1.86516
    A7        2.15290   0.00521   0.00000   0.02144   0.02143   2.17433
    A8        2.04747  -0.00240   0.00000  -0.01563  -0.01564   2.03182
    A9        2.08279  -0.00281   0.00000  -0.00586  -0.00587   2.07692
   A10        2.12170  -0.00035   0.00000  -0.00021  -0.00021   2.12149
   A11        2.10882   0.00242   0.00000   0.01551   0.01551   2.12433
   A12        2.05266  -0.00207   0.00000  -0.01532  -0.01532   2.03734
    D1        0.81981  -0.00188   0.00000  -0.32450  -0.32462   0.49519
    D2       -2.33057  -0.00187   0.00000  -0.33229  -0.33240  -2.66297
    D3        2.90782  -0.00057   0.00000  -0.29466  -0.29459   2.61323
    D4       -0.24255  -0.00056   0.00000  -0.30246  -0.30237  -0.54493
    D5       -1.30673   0.00072   0.00000  -0.28707  -0.28704  -1.59377
    D6        1.82608   0.00074   0.00000  -0.29487  -0.29482   1.53126
    D7       -0.01786   0.00000   0.00000  -0.01905  -0.01906  -0.03692
    D8        3.12651   0.00003   0.00000  -0.01469  -0.01470   3.11181
    D9        3.13268  -0.00002   0.00000  -0.01106  -0.01105   3.12163
   D10       -0.00613   0.00001   0.00000  -0.00670  -0.00669  -0.01282
         Item               Value     Threshold  Converged?
 Maximum Force            0.018558     0.000450     NO 
 RMS     Force            0.004911     0.000300     NO 
 Maximum Displacement     0.370699     0.001800     NO 
 RMS     Displacement     0.152973     0.001200     NO 
 Predicted change in Energy=-2.697010D-03
 Lowest energy point so far.  Saving SCF results.
 GradGradGradGradGradGradGradGradGradGradGradGradGradGradGradGradGradGrad

 Leave Link  103 at Sat Feb 16 13:47:51 2019, MaxMem=   196608000 cpu:        33.5
 (Enter /cm/shared/c3ddb/gaussian/09.d01/g09/l202.exe)
                          Input orientation:                          
 ---------------------------------------------------------------------
 Center     Atomic      Atomic             Coordinates (Angstroms)
 Number     Number       Type             X           Y           Z
 ---------------------------------------------------------------------
      1          6           0        1.093582   -0.016414    0.065319
      2          6           0        0.678835   -1.165265   -0.832904
      3          6           0        0.823170   -1.179284   -2.171237
      4          1           0        1.048652    0.945607   -0.467976
      5          1           0        0.451382    0.046053    0.957553
      6          1           0        2.131246   -0.147525    0.425325
      7          1           0        0.247601   -2.041032   -0.336137
      8          1           0        1.231558   -0.320823   -2.711788
      9          1           0        0.532819   -2.044046   -2.770663
 ---------------------------------------------------------------------
                    Distance matrix (angstroms):
                    1          2          3          4          5
     1  C    0.000000
     2  C    1.516139   0.000000
     3  C    2.535265   1.346166   0.000000
     4  H    1.100867   2.173872   2.732600   0.000000
     5  H    1.101093   2.173653   3.380681   1.788314   0.000000
     6  H    1.106138   2.174497   3.085081   1.779026   1.772762
     7  H    2.230678   1.095312   2.107482   3.095009   2.463957
     8  H    2.797146   2.132789   1.093586   2.583020   3.769262
     9  H    3.531082   2.132718   1.091526   3.808737   4.274897
[...]
 IDIUse=1 WtCom= 1.00D+00 WtEn= 0.00D+00
 Coeff-Com: -0.140D-05 0.223D-03 0.166D-02 0.362D-02 0.389D-01 0.177D+00
 Coeff-Com:  0.778D+00
 Coeff:     -0.140D-05 0.223D-03 0.166D-02 0.362D-02 0.389D-01 0.177D+00
 Coeff:      0.778D+00
 Gap=     0.211 Goal=   None    Shift=    0.000
 RMSDP=5.02D-09 MaxDP=5.53D-08 DE=-8.53D-13 OVMax= 3.88D-08

 SCF Done:  E(RB97D) =  -117.797143029     A.U. after    7 cycles
            NFock=  7  Conv=0.50D-08     -V/T= 2.0057
 KE= 1.171245334297D+02 PE=-4.128269217465D+02 EE= 1.077921686481D+02
 Leave Link  502 at Sat Feb 16 13:49:31 2019, MaxMem=   196608000 cpu:        19.2
 (Enter /cm/shared/c3ddb/gaussian/09.d01/g09/l508.exe)
 QCSCF skips out because SCF is already converged.
 Leave Link  508 at Sat Feb 16 13:49:31 2019, MaxMem=   196608000 cpu:         0.0
 (Enter /cm/shared/c3ddb/gaussian/09.d01/g09/l701.exe)
 Compute integral first derivatives.
 ... and contract with generalized density number  0.
 R6Disp: Adding Grimme-D2 dispersion energy 1st derivatives to the gradient.
 Leave Link  701 at Sat Feb 16 13:49:32 2019, MaxMem=   196608000 cpu:         2.5
 (Enter /cm/shared/c3ddb/gaussian/09.d01/g09/l702.exe)
 L702 exits ... SP integral derivatives will be done elsewhere.
 Leave Link  702 at Sat Feb 16 13:49:32 2019, MaxMem=   196608000 cpu:         0.2
 (Enter /cm/shared/c3ddb/gaussian/09.d01/g09/l703.exe)
 Compute integral first derivatives, UseDBF=F ICtDFT=           0.
 Integral derivatives from FoFJK, PRISM(SPDF).
 Calling FoFJK, ICntrl=      2527 FMM=F ISym2X=0 I1Cent= 0 IOpClX= 0 NMat=1 NMatS=1 NMatT=0.
 FoFJK:  IHMeth= 1 ICntrl=    2527 DoSepK=F KAlg= 0 I1Cent=   0 FoldK=F
 IRaf=         0 NMat=   1 IRICut=       1 DoRegI=T DoRafI=F ISym2E= 0.
 FoFCou: FMM=F IPFlag=           0 FMFlag=      100000 FMFlg1=         800
         NFxFlg=           0 DoJE=F BraDBF=F KetDBF=F FulRan=T
         wScrn=  0.000000 ICntrl=    2527 IOpCl=  0 I1Cent=           0 NGrid=           0
         NMat0=    1 NMatS0=      1 NMatT0=    0 NMatD0=    1 NMtDS0=    0 NMtDT0=    0
 Symmetry not used in FoFCou.
 Leave Link  703 at Sat Feb 16 13:49:33 2019, MaxMem=   196608000 cpu:         4.1
 (Enter /cm/shared/c3ddb/gaussian/09.d01/g09/l716.exe)
 Dipole        = 1.48925558D-01 3.31778049D-02 2.51698632D-05
 ***** Axes restored to original set *****
 -------------------------------------------------------------------
 Center     Atomic                   Forces (Hartrees/Bohr)
 Number     Number              X              Y              Z
 -------------------------------------------------------------------
      1        6          -0.000016711   -0.000004768   -0.000021259
      2        6          -0.000001973    0.000023226    0.000003998
      3        6           0.000001050    0.000000630    0.000002552
      4        1           0.000005334   -0.000010749   -0.000008001
      5        1           0.000002176   -0.000003447    0.000000740
      6        1           0.000008650   -0.000000175    0.000010314
      7        1           0.000003962    0.000002253    0.000006552
      8        1          -0.000005039   -0.000003513    0.000002721
      9        1           0.000002551   -0.000003458    0.000002381
 -------------------------------------------------------------------
 Cartesian Forces:  Max     0.000023226 RMS     0.000008301
 Leave Link  716 at Sat Feb 16 13:49:33 2019, MaxMem=   196608000 cpu:         0.1
 (Enter /cm/shared/c3ddb/gaussian/09.d01/g09/l103.exe)

 GradGradGradGradGradGradGradGradGradGradGradGradGradGradGradGradGradGrad
 Berny optimization.
 Using GEDIIS/GDIIS optimizer.
 FormGI is forming the generalized inverse of G from B-inverse, IUseBI=4.
 Internal  Forces:  Max     0.000028002 RMS     0.000007102
 Search for a local minimum.
 Step number  11 out of a maximum of   40
 All quantities printed in internal units (Hartrees-Bohrs-Radians)
 RMS Force = .71024D-05 SwitMx=.10000D-02 MixMth= 2
 Mixed Optimization -- En-DIIS/RFO-DIIS
 Swapping is turned off.
 Update second derivatives using D2CorX and points    8    9   10   11
 DE= -1.56D-07 DEPred=-1.98D-07 R= 7.92D-01
 Trust test= 7.92D-01 RLast= 1.30D-02 DXMaxT set to 4.24D-01
 ITU=  0  1  1  0 -1  1  0  0  1  0  0
     Eigenvalues ---    0.00219   0.02079   0.03321   0.04017   0.06064
     Eigenvalues ---    0.06578   0.10798   0.11427   0.12626   0.13234
     Eigenvalues ---    0.14954   0.15037   0.18387   0.33409   0.33608
     Eigenvalues ---    0.33745   0.35196   0.35688   0.36132   0.42592
     Eigenvalues ---    0.63138
 En-DIIS/RFO-DIIS IScMMF=        0 using points:    11   10    9
 RFO step:  Lambda=-3.41780544D-09.
 NNeg= 0 NP= 3 Switch=  2.50D-03 Rises=F DC=  1.65D-05 SmlDif=  1.00D-05
 RMS Error=  0.2443770304D-04 NUsed= 3 EDIIS=F
 DidBck=F Rises=F RFO-DIIS coefs:    0.84967    0.14922    0.00111
 Iteration  1 RMS(Cart)=  0.00044991 RMS(Int)=  0.00000011
 Iteration  2 RMS(Cart)=  0.00000012 RMS(Int)=  0.00000001
 ITry= 1 IFail=0 DXMaxC= 1.10D-03 DCOld= 1.00D+10 DXMaxT= 4.24D-01 DXLimC= 3.00D+00 Rises=F
 Variable       Old X    -DE/DX   Delta X   Delta X   Delta X     New X
                                 (Linear)    (Quad)   (Total)
    R1        2.85717  -0.00003  -0.00006  -0.00001  -0.00007   2.85710
    R2        2.08163  -0.00001   0.00002  -0.00003  -0.00001   2.08162
    R3        2.08835   0.00000   0.00002  -0.00001   0.00000   2.08836
    R4        2.08832   0.00001  -0.00001   0.00004   0.00004   2.08835
    R5        2.54415  -0.00001  -0.00001   0.00000  -0.00001   2.54414
    R6        2.07157   0.00000   0.00000   0.00000   0.00000   2.07157
    R7        2.06662   0.00000   0.00000  -0.00001  -0.00001   2.06661
    R8        2.06301   0.00000   0.00000   0.00000   0.00000   2.06301
    A1        1.94018  -0.00001  -0.00001  -0.00005  -0.00005   1.94012
    A2        1.94021   0.00000   0.00003  -0.00002   0.00001   1.94022
    A3        1.94021   0.00000   0.00001  -0.00001   0.00001   1.94022
    A4        1.88901   0.00001  -0.00005   0.00013   0.00008   1.88909
    A5        1.88909   0.00000   0.00000  -0.00001   0.00000   1.88908
    A6        1.86229   0.00000   0.00000  -0.00005  -0.00004   1.86225
    A7        2.17701   0.00000   0.00005  -0.00005   0.00000   2.17701
    A8        2.02483   0.00000  -0.00006   0.00002  -0.00003   2.02480
    A9        2.08134   0.00001   0.00001   0.00003   0.00003   2.08137
   A10        2.11700   0.00000  -0.00002  -0.00001  -0.00003   2.11698
   A11        2.12738   0.00000   0.00002   0.00000   0.00002   2.12740
   A12        2.03880   0.00000  -0.00001   0.00001   0.00001   2.03881
    D1        0.00091   0.00000  -0.00077  -0.00015  -0.00092  -0.00001
    D2       -3.14061  -0.00001  -0.00074  -0.00022  -0.00097  -3.14158
    D3        2.10650   0.00000  -0.00081  -0.00003  -0.00085   2.10566
    D4       -1.03502   0.00000  -0.00079  -0.00010  -0.00089  -1.03591
    D5       -2.10479   0.00000  -0.00078  -0.00011  -0.00089  -2.10568
    D6        1.03688   0.00000  -0.00076  -0.00018  -0.00093   1.03594
    D7        0.00010   0.00000   0.00010  -0.00017  -0.00007   0.00003
    D8       -3.14151   0.00000   0.00004  -0.00009  -0.00005  -3.14156
    D9       -3.14157   0.00000   0.00008  -0.00010  -0.00002  -3.14159
   D10        0.00001   0.00000   0.00002  -0.00002   0.00000   0.00000
         Item               Value     Threshold  Converged?
 Maximum Force            0.000028     0.000450     YES
 RMS     Force            0.000007     0.000300     YES
 Maximum Displacement     0.001101     0.001800     YES
 RMS     Displacement     0.000450     0.001200     YES
 Predicted change in Energy=-8.958020D-09
 Optimization completed.
    -- Stationary point found.
                           ----------------------------
                           !   Optimized Parameters   !
                           ! (Angstroms and Degrees)  !
 --------------------------                            --------------------------
 ! Name  Definition              Value          Derivative Info.                !
 --------------------------------------------------------------------------------
 ! R1    R(1,2)                  1.512          -DE/DX =    0.0                 !
 ! R2    R(1,4)                  1.1016         -DE/DX =    0.0                 !
 ! R3    R(1,5)                  1.1051         -DE/DX =    0.0                 !
 ! R4    R(1,6)                  1.1051         -DE/DX =    0.0                 !
 ! R5    R(2,3)                  1.3463         -DE/DX =    0.0                 !
 ! R6    R(2,7)                  1.0962         -DE/DX =    0.0                 !
 ! R7    R(3,8)                  1.0936         -DE/DX =    0.0                 !
 ! R8    R(3,9)                  1.0917         -DE/DX =    0.0                 !
 ! A1    A(2,1,4)              111.164          -DE/DX =    0.0                 !
 ! A2    A(2,1,5)              111.166          -DE/DX =    0.0                 !
 ! A3    A(2,1,6)              111.166          -DE/DX =    0.0                 !
 ! A4    A(4,1,5)              108.2322         -DE/DX =    0.0                 !
 ! A5    A(4,1,6)              108.2367         -DE/DX =    0.0                 !
 ! A6    A(5,1,6)              106.7015         -DE/DX =    0.0                 !
 ! A7    A(1,2,3)              124.7336         -DE/DX =    0.0                 !
 ! A8    A(1,2,7)              116.0145         -DE/DX =    0.0                 !
 ! A9    A(3,2,7)              119.2519         -DE/DX =    0.0                 !
 ! A10   A(2,3,8)              121.2954         -DE/DX =    0.0                 !
 ! A11   A(2,3,9)              121.8898         -DE/DX =    0.0                 !
 ! A12   A(8,3,9)              116.8148         -DE/DX =    0.0                 !
 ! D1    D(4,1,2,3)              0.0519         -DE/DX =    0.0                 !
 ! D2    D(4,1,2,7)           -179.9439         -DE/DX =    0.0                 !
 ! D3    D(5,1,2,3)            120.6938         -DE/DX =    0.0                 !
 ! D4    D(5,1,2,7)            -59.302          -DE/DX =    0.0                 !
 ! D5    D(6,1,2,3)           -120.5956         -DE/DX =    0.0                 !
 ! D6    D(6,1,2,7)             59.4086         -DE/DX =    0.0                 !
 ! D7    D(1,2,3,8)              0.0058         -DE/DX =    0.0                 !
 ! D8    D(1,2,3,9)           -179.9953         -DE/DX =    0.0                 !
 ! D9    D(7,2,3,8)           -179.9985         -DE/DX =    0.0                 !
 ! D10   D(7,2,3,9)              0.0003         -DE/DX =    0.0                 !
 --------------------------------------------------------------------------------
 Lowest energy point so far.  Saving SCF results.
 GradGradGradGradGradGradGradGradGradGradGradGradGradGradGradGradGradGrad

 Largest change from initial coordinates is atom    6       0.029 Angstoms.
 Leave Link  103 at Sat Feb 16 13:49:36 2019, MaxMem=   196608000 cpu:        20.0
 (Enter /cm/shared/c3ddb/gaussian/09.d01/g09/l202.exe)
                          Input orientation:                          
 ---------------------------------------------------------------------
 Center     Atomic      Atomic             Coordinates (Angstroms)
 Number     Number       Type             X           Y           Z
 ---------------------------------------------------------------------
      1          6           0        1.113885   -0.025003    0.063739
      2          6           0        0.769823   -1.194493   -0.830637
      3          6           0        0.745560   -1.150178   -2.175997
      4          1           0        1.343031    0.874892   -0.528800
      5          1           0        0.278734    0.214188    0.746802
      6          1           0        1.988785   -0.252607    0.699326
      7          1           0        0.526518   -2.134142   -0.321151
      8          1           0        0.982501   -0.230625   -2.718456
      9          1           0        0.490007   -2.024760   -2.777334
 ---------------------------------------------------------------------
                    Distance matrix (angstroms):
                    1          2          3          4          5
     1  C    0.000000
     2  C    1.511951   0.000000
     3  C    2.533397   1.346308   0.000000
     4  H    1.101554   2.168417   2.677898   0.000000
     5  H    1.105109   2.171144   3.259168   1.787853   0.000000
     6  H    1.105090   2.171129   3.258638   1.787888   1.773252
     7  H    2.222973   1.096227   2.111071   3.124756   2.591636
     8  H    2.792875   2.130290   1.093609   2.479263   3.563869
     9  H    3.529865   2.134776   1.091700   3.767166   4.180558
                    6          7          8          9
     6  H    0.000000
     7  H    2.592252   0.000000
     8  H    3.562909   3.094894   0.000000
     9  H    4.180194   2.458889   1.861434   0.000000
 Stoichiometry    C3H6
 Framework group  C1[X(C3H6)]
 Deg. of freedom    21
 Full point group                 C1      NOp   1
 RotChk:  IX=0 Diff= 5.99D-16
 Largest Abelian subgroup         C1      NOp   1
 Largest concise Abelian subgroup C1      NOp   1
                         Standard orientation:                         
 ---------------------------------------------------------------------
 Center     Atomic      Atomic             Coordinates (Angstroms)
 Number     Number       Type             X           Y           Z
 ---------------------------------------------------------------------
      1          6           0        1.241505   -0.165660   -0.000001
      2          6           0       -0.133229    0.463705    0.000018
      3          6           0       -1.291243   -0.222990   -0.000002
      4          1           0        1.175509   -1.265235   -0.000965
      5          1           0        1.823287    0.146575   -0.886175
      6          1           0        1.822644    0.145135    0.887076
      7          1           0       -0.160314    1.559598   -0.000021
      8          1           0       -1.303223   -1.316533    0.000060
      9          1           0       -2.260098    0.280129   -0.000062
 ---------------------------------------------------------------------
 Rotational constants (GHZ):     45.8636591      9.1471215      8.0091519
 Leave Link  202 at Sat Feb 16 13:49:36 2019, MaxMem=   196608000 cpu:         0.3
 (Enter /cm/shared/c3ddb/gaussian/09.d01/g09/l601.exe)
 Copying SCF densities to generalized density rwf, IOpCl= 0 IROHF=0.

 **********************************************************************

            Population analysis using the SCF density.

 **********************************************************************

 Orbital symmetries:
       Occupied  (A) (A) (A) (A) (A) (A) (A) (A) (A) (A) (A) (A)
       Virtual   (A) (A) (A) (A) (A) (A) (A) (A) (A) (A) (A) (A)
                 (A) (A) (A) (A) (A) (A) (A) (A) (A) (A) (A) (A)
                 (A) (A) (A)
 The electronic state is 1-A.
 Alpha  occ. eigenvalues --   -9.91250  -9.90374  -9.89653  -0.70753  -0.61512
 Alpha  occ. eigenvalues --   -0.49401  -0.41105  -0.36797  -0.36114  -0.32275
 Alpha  occ. eigenvalues --   -0.29880  -0.21386
 Alpha virt. eigenvalues --   -0.00283   0.09377   0.11208   0.12839   0.15068
 Alpha virt. eigenvalues --    0.15444   0.16520   0.25896   0.34656   0.49129
 Alpha virt. eigenvalues --    0.51310   0.52664   0.58963   0.61694   0.62227
 Alpha virt. eigenvalues --    0.66862   0.71977   0.74938   0.83041   0.87721
 Alpha virt. eigenvalues --    0.87843   0.90569   0.92423   0.93638   1.10730
 Alpha virt. eigenvalues --    1.21502   1.33281
          Condensed to atoms (all electrons):
               1          2          3          4          5          6
     1  C    5.116636   0.359908  -0.045775   0.373344   0.363870   0.363872
     2  C    0.359908   4.846148   0.653884  -0.038504  -0.033913  -0.033930
     3  C   -0.045775   0.653884   5.004137  -0.005151   0.000224   0.000211
     4  H    0.373344  -0.038504  -0.005151   0.569111  -0.028986  -0.028976
     5  H    0.363870  -0.033913   0.000224  -0.028986   0.582707  -0.035763
     6  H    0.363872  -0.033930   0.000211  -0.028976  -0.035763   0.582683
     7  H   -0.052946   0.372183  -0.043725   0.004355  -0.001040  -0.001027
     8  H   -0.011500  -0.039121   0.372340   0.006351   0.000178   0.000178
     9  H    0.005283  -0.029530   0.367537   0.000058  -0.000173  -0.000173
               7          8          9
     1  C   -0.052946  -0.011500   0.005283
     2  C    0.372183  -0.039121  -0.029530
     3  C   -0.043725   0.372340   0.367537
     4  H    0.004355   0.006351   0.000058
     5  H   -0.001040   0.000178  -0.000173
     6  H   -0.001027   0.000178  -0.000173
     7  H    0.599138   0.005500  -0.007777
     8  H    0.005500   0.581063  -0.040432
     9  H   -0.007777  -0.040432   0.576704
 Mulliken charges:
               1
     1  C   -0.472693
     2  C   -0.057125
     3  C   -0.303683
     4  H    0.148398
     5  H    0.152895
     6  H    0.152925
     7  H    0.125338
     8  H    0.125443
     9  H    0.128503
 Sum of Mulliken charges =   0.00000
 Mulliken charges with hydrogens summed into heavy atoms:
               1
     1  C   -0.018475
     2  C    0.068213
     3  C   -0.049738
 Electronic spatial extent (au):  <R**2>=            198.8850
 Charge=              0.0000 electrons
 Dipole moment (field-independent basis, Debye):
    X=              0.3785    Y=              0.0843    Z=              0.0001  Tot=              0.3878
 Quadrupole moment (field-independent basis, Debye-Ang):
   XX=            -18.8255   YY=            -18.6965   ZZ=            -21.3746
   XY=              0.0975   XZ=              0.0002   YZ=              0.0000
 Traceless Quadrupole moment (field-independent basis, Debye-Ang):
   XX=              0.8067   YY=              0.9357   ZZ=             -1.7424
   XY=              0.0975   XZ=              0.0002   YZ=              0.0000
 Octapole moment (field-independent basis, Debye-Ang**2):
  XXX=             -1.6005  YYY=             -0.2331  ZZZ=              0.0015  XYY=             -0.5356
  XXY=              0.7017  XXZ=             -0.0002  XZZ=              2.2786  YZZ=              0.2216
  YYZ=             -0.0012  XYZ=             -0.0002
 Hexadecapole moment (field-independent basis, Debye-Ang**3):
 XXXX=           -180.8876 YYYY=            -50.3628 ZZZZ=            -28.7234 XXXY=             -0.7929
 XXXZ=             -0.0001 YYYX=              0.1535 YYYZ=              0.0012 ZZZX=              0.0026
 ZZZY=             -0.0005 XXYY=            -39.9579 XXZZ=            -36.2164 YYZZ=            -14.6400
 XXYZ=             -0.0017 YYXZ=             -0.0017 ZZXY=              0.4897
 N-N= 7.011307663978D+01 E-N=-4.128269215512D+02  KE= 1.171245334297D+02
 No NMR shielding tensors so no spin-rotation constants.
 Leave Link  601 at Sat Feb 16 13:49:37 2019, MaxMem=   196608000 cpu:         2.7
 (Enter /cm/shared/c3ddb/gaussian/09.d01/g09/l9999.exe)
 1\1\GINC-NODE024\FOpt\RB97D\6-31G\C3H6\DUMINDA\16-Feb-2019\0\\#P opt=c
 alcfc b97d/6-31g scf=xqc\\name\\0,1\C,1.1138852613,-0.0250027859,0.063
 7385349\C,0.7698231726,-1.1944933634,-0.8306371909\C,0.7455603136,-1.1
 501781087,-2.1759969684\H,1.3430311485,0.8748923051,-0.5287997635\H,0.
 2787340801,0.2141878466,0.74680226\H,1.9887845065,-0.252607455,0.69932
 56805\H,0.5265176133,-2.1341424301,-0.3211508894\H,0.9825014534,-0.230
 6254434,-2.7184560422\H,0.4900071606,-2.0247603352,-2.7773341711\\Vers
 ion=AS64L-G09RevD.01\State=1-A\HF=-117.797143\RMSD=5.021e-09\RMSF=8.30
 1e-06\Dipole=0.0151759,0.0409376,0.1461964\Quadrupole=-1.1624444,0.479
 6642,0.6827803,0.4832331,0.029016,-0.0897395\PG=C01 [X(C3H6)]\\@


 MOST BUREAUCRACIES FUNCTION LIKE A SEPTIC TANK.
 THE LARGE CHUNKS RISE TO THE TOP.
 Job cpu time:       0 days  0 hours 13 minutes 58.8 seconds.
 File lengths (MBytes):  RWF=      5 Int=      0 D2E=      0 Chk=      1 Scr=      1
 Normal termination of Gaussian 09 at Sat Feb 16 13:49:37 2019.
