 Entering Gaussian System, Link 0=g09
 Initial command:
 /cm/shared/c3ddb/gaussian/09.d01/g09/l1.exe "/scratch/users/duminda/g09/a1693-7322590/Gau-18844.inp" -scrdir="/scratch/users/duminda/g09/a1693-7322590/"
 Entering Link 1 = /cm/shared/c3ddb/gaussian/09.d01/g09/l1.exe PID=     18845.
  
 Copyright (c) 1988,1990,1992,1993,1995,1998,2003,2009,2013,
            Gaussian, Inc.  All Rights Reserved.
  
 This is part of the Gaussian(R) 09 program.  It is based on
 the Gaussian(R) 03 system (copyright 2003, Gaussian, Inc.),
 the Gaussian(R) 98 system (copyright 1998, Gaussian, Inc.),
 the Gaussian(R) 94 system (copyright 1995, Gaussian, Inc.),
 the Gaussian 92(TM) system (copyright 1992, Gaussian, Inc.),
 the Gaussian 90(TM) system (copyright 1990, Gaussian, Inc.),
 the Gaussian 88(TM) system (copyright 1988, Gaussian, Inc.),
 the Gaussian 86(TM) system (copyright 1986, Carnegie Mellon
 University), and the Gaussian 82(TM) system (copyright 1983,
 Carnegie Mellon University). Gaussian is a federally registered
 trademark of Gaussian, Inc.
  
 This software contains proprietary and confidential information,
 including trade secrets, belonging to Gaussian, Inc.
  
 This software is provided under written license and may be
 used, copied, transmitted, or stored only in accord with that
 written license.
  
 The following legend is applicable only to US Government
 contracts under FAR:
  
                    RESTRICTED RIGHTS LEGEND
  
 Use, reproduction and disclosure by the US Government is
 subject to restrictions as set forth in subparagraphs (a)
 and (c) of the Commercial Computer Software - Restricted
 Rights clause in FAR 52.227-19.
  
 Gaussian, Inc.
 340 Quinnipiac St., Bldg. 40, Wallingford CT 06492
  
  
 ---------------------------------------------------------------
 Warning -- This program may not be used in any manner that
 competes with the business of Gaussian, Inc. or will provide
 assistance to any competitor of Gaussian, Inc.  The licensee
 of this program is prohibited from giving any competitor of
 Gaussian, Inc. access to this program.  By using this program,
 the user acknowledges that Gaussian, Inc. is engaged in the
 business of creating and licensing software in the field of
 computational chemistry and represents and warrants to the
 licensee that it is not a competitor of Gaussian, Inc. and that
 it will not use this program in any manner prohibited above.
 ---------------------------------------------------------------
  

 Cite this work as:
 Gaussian 09, Revision D.01,
 M. J. Frisch, G. W. Trucks, H. B. Schlegel, G. E. Scuseria, 
 M. A. Robb, J. R. Cheeseman, G. Scalmani, V. Barone, B. Mennucci, 
 G. A. Petersson, H. Nakatsuji, M. Caricato, X. Li, H. P. Hratchian, 
 A. F. Izmaylov, J. Bloino, G. Zheng, J. L. Sonnenberg, M. Hada, 
 M. Ehara, K. Toyota, R. Fukuda, J. Hasegawa, M. Ishida, T. Nakajima, 
 Y. Honda, O. Kitao, H. Nakai, T. Vreven, J. A. Montgomery, Jr., 
 J. E. Peralta, F. Ogliaro, M. Bearpark, J. J. Heyd, E. Brothers, 
 K. N. Kudin, V. N. Staroverov, T. Keith, R. Kobayashi, J. Normand, 
 K. Raghavachari, A. Rendell, J. C. Burant, S. S. Iyengar, J. Tomasi, 
 M. Cossi, N. Rega, J. M. Millam, M. Klene, J. E. Knox, J. B. Cross, 
 V. Bakken, C. Adamo, J. Jaramillo, R. Gomperts, R. E. Stratmann, 
 O. Yazyev, A. J. Austin, R. Cammi, C. Pomelli, J. W. Ochterski, 
 R. L. Martin, K. Morokuma, V. G. Zakrzewski, G. A. Voth, 
 P. Salvador, J. J. Dannenberg, S. Dapprich, A. D. Daniels, 
 O. Farkas, J. B. Foresman, J. V. Ortiz, J. Cioslowski, 
 and D. J. Fox, Gaussian, Inc., Wallingford CT, 2013.
 
 ******************************************
 Gaussian 09:  AS64L-G09RevD.01 24-Apr-2013
                16-Feb-2019 
 ******************************************
 %chk=check.chk
 %mem=1500mb
 %nproc=8
 Will use up to    8 processors via shared memory.
 --------------------------------------------------------------
 #P opt=(modredundant, calcfc, noeigentest) b3lyp/cbsb7 scf=xqc
 --------------------------------------------------------------
 1/10=4,11=1,14=-1,18=120,19=15,26=3,38=1/1,3;
 2/9=110,12=2,17=6,18=5,40=1/2;
 3/5=4,6=6,7=700,11=2,16=1,25=1,30=1,71=2,74=-5,140=1/1,2,3;
 4//1;
 5/5=2,8=3,13=1,38=5/2,8;
 8/6=4,10=90,11=11/1;
 11/6=1,8=1,9=11,15=111,16=1/1,2,10;
 10/6=1,13=1/2;
 6/7=2,8=2,9=2,10=2,28=1/1;
 7/10=1,18=20,25=1/1,2,3,16;
 1/10=4,11=1,14=-1,18=20,19=15,26=3/3(2);
 2/9=110/2;
 99//99;
 2/9=110/2;
 3/5=4,6=6,7=700,11=2,16=1,25=1,30=1,71=1,74=-5/1,2,3;
 4/5=5,16=3,69=1/1;
 5/5=2,8=3,13=1,38=5/2,8;
 7//1,2,3,16;
 1/11=1,14=-1,18=20,19=15,26=3/3(-5);
 2/9=110/2;
 6/7=2,8=2,9=2,10=2,19=2,28=1/1;
 99/9=1/99;
 Leave Link    1 at Sat Feb 16 13:59:43 2019, MaxMem=   196608000 cpu:         0.6
 (Enter /cm/shared/c3ddb/gaussian/09.d01/g09/l101.exe)
 ----
 name
 ----
 Symbolic Z-matrix:
 Charge =  0 Multiplicity = 1
 N                    -0.64841   0.00024  -0.36376 
 N                     0.64841  -0.00106   0.36376 
 H                    -1.14843  -0.79601   0.03022 
 H                    -1.14892   0.79443   0.03376 
 H                     1.14768   0.79642  -0.02869 
 H                     1.14967  -0.79402  -0.03528 
 
 The following ModRedundant input section has been read:
 D       3       1       2       5 S  36 10.000                                
 
 NAtoms=      6 NQM=        6 NQMF=       0 NMMI=      0 NMMIF=      0
                NMic=       0 NMicF=      0.
                    Isotopes and Nuclear Properties:
 (Nuclear quadrupole moments (NQMom) in fm**2, nuclear magnetic moments (NMagM)
  in nuclear magnetons)

  Atom         1           2           3           4           5           6
 IAtWgt=          14          14           1           1           1           1
 AtmWgt=  14.0030740  14.0030740   1.0078250   1.0078250   1.0078250   1.0078250
 NucSpn=           2           2           1           1           1           1
 AtZEff=   0.0000000   0.0000000   0.0000000   0.0000000   0.0000000   0.0000000
 NQMom=    2.0440000   2.0440000   0.0000000   0.0000000   0.0000000   0.0000000
 NMagM=    0.4037610   0.4037610   2.7928460   2.7928460   2.7928460   2.7928460
 AtZNuc=   7.0000000   7.0000000   1.0000000   1.0000000   1.0000000   1.0000000
 Leave Link  101 at Sat Feb 16 13:59:43 2019, MaxMem=   196608000 cpu:         0.8
 (Enter /cm/shared/c3ddb/gaussian/09.d01/g09/l103.exe)

 GradGradGradGradGradGradGradGradGradGradGradGradGradGradGradGradGradGrad
 Berny optimization.
 Initialization pass.
                           ----------------------------
                           !    Initial Parameters    !
                           ! (Angstroms and Degrees)  !
 --------------------------                            --------------------------
 ! Name  Definition              Value          Derivative Info.                !
 --------------------------------------------------------------------------------
 ! R1    R(1,2)                  1.4869         calculate D2E/DX2 analytically  !
 ! R2    R(1,3)                  1.0194         calculate D2E/DX2 analytically  !
 ! R3    R(1,4)                  1.0194         calculate D2E/DX2 analytically  !
 ! R4    R(2,5)                  1.0194         calculate D2E/DX2 analytically  !
 ! R5    R(2,6)                  1.0194         calculate D2E/DX2 analytically  !
 ! A1    A(2,1,3)              103.7688         calculate D2E/DX2 analytically  !
 ! A2    A(2,1,4)              103.7741         calculate D2E/DX2 analytically  !
 ! A3    A(3,1,4)              102.5314         calculate D2E/DX2 analytically  !
 ! A4    A(1,2,5)              103.7741         calculate D2E/DX2 analytically  !
 ! A5    A(1,2,6)              103.7688         calculate D2E/DX2 analytically  !
 ! A6    A(5,2,6)              102.5314         calculate D2E/DX2 analytically  !
 ! D1    D(3,1,2,5)           -179.8789         Scan                            !
 ! D2    D(3,1,2,6)             73.2583         calculate D2E/DX2 analytically  !
 ! D3    D(4,1,2,5)            -73.0161         calculate D2E/DX2 analytically  !
 ! D4    D(4,1,2,6)           -179.8789         calculate D2E/DX2 analytically  !
 --------------------------------------------------------------------------------
 Trust Radius=3.00D-01 FncErr=1.00D-07 GrdErr=1.00D-06
 Number of optimizations in scan=  37
 Number of steps in this run=     25 maximum allowed number of steps=    100.
 GradGradGradGradGradGradGradGradGradGradGradGradGradGradGradGradGradGrad

 Leave Link  103 at Sat Feb 16 13:59:43 2019, MaxMem=   196608000 cpu:         0.1
 (Enter /cm/shared/c3ddb/gaussian/09.d01/g09/l202.exe)
                          Input orientation:                          
 ---------------------------------------------------------------------
 Center     Atomic      Atomic             Coordinates (Angstroms)
 Number     Number       Type             X           Y           Z
 ---------------------------------------------------------------------
      1          7           0       -0.648407    0.000244   -0.363758
      2          7           0        0.648408   -0.001063    0.363755
      3          1           0       -1.148434   -0.796011    0.030216
      4          1           0       -1.148921    0.794429    0.033756
      5          1           0        1.147684    0.796415   -0.028692
      6          1           0        1.149671   -0.794015   -0.035277
 ---------------------------------------------------------------------
                    Distance matrix (angstroms):
                    1          2          3          4          5
     1  N    0.000000
     2  N    1.486945   0.000000
     3  H    1.019443   1.992945   0.000000
     4  H    1.019442   1.993012   1.590444   0.000000
     5  H    1.993013   1.019442   2.794897   2.297455   0.000000
     6  H    1.992945   1.019443   2.299039   2.794896   1.590445
                    6
     6  H    0.000000
 Stoichiometry    H4N2
 Framework group  C2[X(H4N2)]
 Deg. of freedom     7
 Full point group                 C2      NOp   2
 Largest Abelian subgroup         C2      NOp   2
 Largest concise Abelian subgroup C2      NOp   2
                         Standard orientation:                         
 ---------------------------------------------------------------------
 Center     Atomic      Atomic             Coordinates (Angstroms)
 Number     Number       Type             X           Y           Z
 ---------------------------------------------------------------------
      1          7           0        0.000000   -0.743473   -0.000136
      2          7           0        0.000000    0.743473   -0.000136
      3          1           0        0.590756   -0.986105   -0.794744
      4          1           0        0.589061   -0.986195    0.795699
      5          1           0       -0.589061    0.986195    0.795699
      6          1           0       -0.590756    0.986105   -0.794744
 ---------------------------------------------------------------------
 Rotational constants (GHZ):    138.3989683     24.2927319     22.7129375
 Leave Link  202 at Sat Feb 16 13:59:43 2019, MaxMem=   196608000 cpu:         0.6
 (Enter /cm/shared/c3ddb/gaussian/09.d01/g09/l301.exe)
 Standard basis: 6-311G(2d,d,p) (5D, 7F)
 Ernie: Thresh=  0.10000D-02 Tol=  0.10000D-05 Strict=F.
 There are    31 symmetry adapted cartesian basis functions of A   symmetry.
 There are    31 symmetry adapted cartesian basis functions of B   symmetry.
 There are    30 symmetry adapted basis functions of A   symmetry.
 There are    30 symmetry adapted basis functions of B   symmetry.
    60 basis functions,    96 primitive gaussians,    62 cartesian basis functions
     9 alpha electrons        9 beta electrons
       nuclear repulsion energy        40.9118056673 Hartrees.
 IExCor=  402 DFT=T Ex+Corr=B3LYP ExCW=0 ScaHFX=  0.200000
 ScaDFX=  0.800000  0.720000  1.000000  0.810000 ScalE2=  1.000000  1.000000
 IRadAn=      0 IRanWt=     -1 IRanGd=            0 ICorTp=0 IEmpDi=  4
 NAtoms=    6 NActive=    6 NUniq=    3 SFac= 4.00D+00 NAtFMM=   60 NAOKFM=F Big=F
 Integral buffers will be    131072 words long.
 Raffenetti 2 integral format.
 Two-electron integral symmetry is turned on.
 Leave Link  301 at Sat Feb 16 13:59:43 2019, MaxMem=   196608000 cpu:         0.7
 (Enter /cm/shared/c3ddb/gaussian/09.d01/g09/l302.exe)
 NPDir=0 NMtPBC=     1 NCelOv=     1 NCel=       1 NClECP=     1 NCelD=      1
         NCelK=      1 NCelE2=     1 NClLst=     1 CellRange=     0.0.
 One-electron integrals computed using PRISM.
 One-electron integral symmetry used in STVInt
 NBasis=    60 RedAO= T EigKep=  3.62D-03  NBF=    30    30
 NBsUse=    60 1.00D-06 EigRej= -1.00D+00 NBFU=    30    30
 Precomputing XC quadrature grid using
 IXCGrd= 4 IRadAn=           0 IRanWt=          -1 IRanGd=           0 AccXCQ= 0.00D+00.
 Generated NRdTot=       0 NPtTot=           0 NUsed=           0 NTot=          32
 NSgBfM=    62    62    62    62    62 MxSgAt=     6 MxSgA2=     6.
 Leave Link  302 at Sat Feb 16 13:59:44 2019, MaxMem=   196608000 cpu:         5.1
 (Enter /cm/shared/c3ddb/gaussian/09.d01/g09/l303.exe)
 DipDrv:  MaxL=1.
 Leave Link  303 at Sat Feb 16 13:59:44 2019, MaxMem=   196608000 cpu:         0.9
 (Enter /cm/shared/c3ddb/gaussian/09.d01/g09/l401.exe)
 ExpMin= 1.03D-01 ExpMax= 6.29D+03 ExpMxC= 9.49D+02 IAcc=1 IRadAn=         1 AccDes= 0.00D+00
 Harris functional with IExCor=  402 and IRadAn=       1 diagonalized for initial guess.
 HarFok:  IExCor=  402 AccDes= 0.00D+00 IRadAn=         1 IDoV= 1 UseB2=F ITyADJ=14
 ICtDFT=  3500011 ScaDFX=  1.000000  1.000000  1.000000  1.000000
 FoFCou: FMM=F IPFlag=           0 FMFlag=      100000 FMFlg1=           0
         NFxFlg=           0 DoJE=T BraDBF=F KetDBF=T FulRan=T
         wScrn=  0.000000 ICntrl=     500 IOpCl=  0 I1Cent=   200000004 NGrid=           0
         NMat0=    1 NMatS0=      1 NMatT0=    0 NMatD0=    1 NMtDS0=    0 NMtDT0=    0
 Petite list used in FoFCou.
 Harris En= -111.910190053889    
 JPrj=0 DoOrth=F DoCkMO=F.
 Initial guess orbital symmetries:
       Occupied  (A) (B) (A) (B) (A) (A) (B) (B) (A)
       Virtual   (A) (B) (A) (B) (B) (A) (B) (A) (B) (B) (A) (B)
                 (A) (A) (B) (A) (B) (B) (A) (A) (B) (B) (B) (A)
                 (A) (A) (B) (A) (B) (A) (B) (A) (B) (A) (A) (B)
                 (B) (B) (A) (A) (B) (B) (A) (A) (B) (A) (A) (B)
                 (B) (B) (A)
 The electronic state of the initial guess is 1-A.
 Leave Link  401 at Sat Feb 16 13:59:45 2019, MaxMem=   196608000 cpu:         6.1
 (Enter /cm/shared/c3ddb/gaussian/09.d01/g09/l502.exe)
 Closed shell SCF:
 Using DIIS extrapolation, IDIIS=  1040.
 Integral symmetry usage will be decided dynamically.
 Keep R1 ints in memory in symmetry-blocked form, NReq=2579517.
 IVT=       18530 IEndB=       18530 NGot=   196608000 MDV=   195747026
 LenX=   195747026 LenY=   195742741
 Requested convergence on RMS density matrix=1.00D-08 within  64 cycles.
 Requested convergence on MAX density matrix=1.00D-06.
 Requested convergence on             energy=1.00D-06.
 No special actions if energy rises.
 FoFCou: FMM=F IPFlag=           0 FMFlag=           0 FMFlg1=           0
         NFxFlg=           0 DoJE=F BraDBF=F KetDBF=F FulRan=T
         wScrn=  0.000000 ICntrl=     600 IOpCl=  0 I1Cent=           0 NGrid=           0
         NMat0=    1 NMatS0=   1830 NMatT0=    0 NMatD0=    1 NMtDS0=    0 NMtDT0=    0
 Petite list used in FoFCou.
 Integral accuracy reduced to 1.0D-05 until final iterations.

 Cycle   1  Pass 0  IDiag  1:
 E= -111.825572065475    
 DIIS: error= 4.80D-02 at cycle   1 NSaved=   1.
 NSaved= 1 IEnMin= 1 EnMin= -111.825572065475     IErMin= 1 ErrMin= 4.80D-02
 ErrMax= 4.80D-02  0.00D+00 EMaxC= 1.00D-01 BMatC= 9.48D-02 BMatP= 9.48D-02
 IDIUse=3 WtCom= 5.20D-01 WtEn= 4.80D-01
 Coeff-Com:  0.100D+01
 Coeff-En:   0.100D+01
 Coeff:      0.100D+01
 Gap=     0.157 Goal=   None    Shift=    0.000
 GapD=    0.157 DampG=1.000 DampE=0.500 DampFc=0.5000 IDamp=-1.
 Damping current iteration by 5.00D-01
 RMSDP=6.79D-03 MaxDP=8.98D-02              OVMax= 1.49D-01

 Cycle   2  Pass 0  IDiag  1:
 E= -111.855159473675     Delta-E=       -0.029587408200 Rises=F Damp=T
 DIIS: error= 8.64D-03 at cycle   2 NSaved=   2.
 NSaved= 2 IEnMin= 2 EnMin= -111.855159473675     IErMin= 2 ErrMin= 8.64D-03
 ErrMax= 8.64D-03  0.00D+00 EMaxC= 1.00D-01 BMatC= 5.25D-03 BMatP= 9.48D-02
 IDIUse=3 WtCom= 9.14D-01 WtEn= 8.64D-02
 Coeff-Com:  0.867D-01 0.913D+00
 Coeff-En:   0.193D+00 0.807D+00
 Coeff:      0.959D-01 0.904D+00
 Gap=     0.243 Goal=   None    Shift=    0.000
 RMSDP=9.84D-04 MaxDP=1.04D-02 DE=-2.96D-02 OVMax= 8.46D-02

 Cycle   3  Pass 0  IDiag  1:
 E= -111.896988158938     Delta-E=       -0.041828685263 Rises=F Damp=F
 DIIS: error= 4.75D-03 at cycle   3 NSaved=   3.
 NSaved= 3 IEnMin= 3 EnMin= -111.896988158938     IErMin= 3 ErrMin= 4.75D-03
 ErrMax= 4.75D-03  0.00D+00 EMaxC= 1.00D-01 BMatC= 8.16D-04 BMatP= 5.25D-03
 IDIUse=3 WtCom= 9.53D-01 WtEn= 4.75D-02
 Coeff-Com: -0.151D-01 0.250D+00 0.765D+00
 Coeff-En:   0.000D+00 0.000D+00 0.100D+01
 Coeff:     -0.144D-01 0.238D+00 0.777D+00
 Gap=     0.245 Goal=   None    Shift=    0.000
 RMSDP=3.71D-04 MaxDP=3.38D-03 DE=-4.18D-02 OVMax= 7.23D-03

 Cycle   4  Pass 0  IDiag  1:
 E= -111.897621494301     Delta-E=       -0.000633335363 Rises=F Damp=F
 DIIS: error= 7.51D-04 at cycle   4 NSaved=   4.
 NSaved= 4 IEnMin= 4 EnMin= -111.897621494301     IErMin= 4 ErrMin= 7.51D-04
 ErrMax= 7.51D-04  0.00D+00 EMaxC= 1.00D-01 BMatC= 2.57D-05 BMatP= 8.16D-04
 IDIUse=3 WtCom= 9.92D-01 WtEn= 7.51D-03
 Coeff-Com: -0.370D-02 0.827D-02 0.171D+00 0.824D+00
 Coeff-En:   0.000D+00 0.000D+00 0.000D+00 0.100D+01
 Coeff:     -0.367D-02 0.821D-02 0.170D+00 0.826D+00
 Gap=     0.245 Goal=   None    Shift=    0.000
 RMSDP=5.43D-05 MaxDP=5.97D-04 DE=-6.33D-04 OVMax= 1.11D-03

 Cycle   5  Pass 0  IDiag  1:
 E= -111.897640571021     Delta-E=       -0.000019076720 Rises=F Damp=F
 DIIS: error= 3.20D-05 at cycle   5 NSaved=   5.
 NSaved= 5 IEnMin= 5 EnMin= -111.897640571021     IErMin= 5 ErrMin= 3.20D-05
 ErrMax= 3.20D-05  0.00D+00 EMaxC= 1.00D-01 BMatC= 8.33D-08 BMatP= 2.57D-05
 IDIUse=1 WtCom= 1.00D+00 WtEn= 0.00D+00
 Coeff-Com:  0.399D-04-0.889D-03 0.190D-01 0.106D+00 0.876D+00
 Coeff:      0.399D-04-0.889D-03 0.190D-01 0.106D+00 0.876D+00
 Gap=     0.245 Goal=   None    Shift=    0.000
 RMSDP=3.11D-06 MaxDP=4.43D-05 DE=-1.91D-05 OVMax= 7.14D-05

 Initial convergence to 1.0D-05 achieved.  Increase integral accuracy.
 Cycle   6  Pass 1  IDiag  1:
 E= -111.897638517709     Delta-E=        0.000002053312 Rises=F Damp=F
 DIIS: error= 5.56D-06 at cycle   1 NSaved=   1.
 NSaved= 1 IEnMin= 1 EnMin= -111.897638517709     IErMin= 1 ErrMin= 5.56D-06
 ErrMax= 5.56D-06  0.00D+00 EMaxC= 1.00D-01 BMatC= 2.64D-09 BMatP= 2.64D-09
 IDIUse=1 WtCom= 1.00D+00 WtEn= 0.00D+00
 Coeff-Com:  0.100D+01
 Coeff:      0.100D+01
 Gap=     0.245 Goal=   None    Shift=    0.000
 RMSDP=3.11D-06 MaxDP=4.43D-05 DE= 2.05D-06 OVMax= 4.10D-05

 Cycle   7  Pass 1  IDiag  1:
 E= -111.897638520069     Delta-E=       -0.000000002360 Rises=F Damp=F
 DIIS: error= 5.81D-06 at cycle   2 NSaved=   2.
 NSaved= 2 IEnMin= 2 EnMin= -111.897638520069     IErMin= 1 ErrMin= 5.56D-06
 ErrMax= 5.81D-06  0.00D+00 EMaxC= 1.00D-01 BMatC= 1.07D-09 BMatP= 2.64D-09
 IDIUse=1 WtCom= 1.00D+00 WtEn= 0.00D+00
 Coeff-Com:  0.361D+00 0.639D+00
 Coeff:      0.361D+00 0.639D+00
 Gap=     0.245 Goal=   None    Shift=    0.000
 RMSDP=5.99D-07 MaxDP=7.84D-06 DE=-2.36D-09 OVMax= 1.17D-05

 Cycle   8  Pass 1  IDiag  1:
 E= -111.897638520789     Delta-E=       -0.000000000720 Rises=F Damp=F
 DIIS: error= 2.62D-06 at cycle   3 NSaved=   3.
 NSaved= 3 IEnMin= 3 EnMin= -111.897638520789     IErMin= 3 ErrMin= 2.62D-06
 ErrMax= 2.62D-06  0.00D+00 EMaxC= 1.00D-01 BMatC= 2.42D-10 BMatP= 1.07D-09
 IDIUse=1 WtCom= 1.00D+00 WtEn= 0.00D+00
 Coeff-Com:  0.383D-01 0.326D+00 0.636D+00
 Coeff:      0.383D-01 0.326D+00 0.636D+00
 Gap=     0.245 Goal=   None    Shift=    0.000
 RMSDP=1.67D-07 MaxDP=2.70D-06 DE=-7.20D-10 OVMax= 3.44D-06

 Cycle   9  Pass 1  IDiag  1:
 E= -111.897638520987     Delta-E=       -0.000000000197 Rises=F Damp=F
 DIIS: error= 1.77D-07 at cycle   4 NSaved=   4.
 NSaved= 4 IEnMin= 4 EnMin= -111.897638520987     IErMin= 4 ErrMin= 1.77D-07
 ErrMax= 1.77D-07  0.00D+00 EMaxC= 1.00D-01 BMatC= 1.54D-12 BMatP= 2.42D-10
 IDIUse=1 WtCom= 1.00D+00 WtEn= 0.00D+00
 Coeff-Com: -0.913D-02 0.379D-01 0.113D+00 0.859D+00
 Coeff:     -0.913D-02 0.379D-01 0.113D+00 0.859D+00
 Gap=     0.245 Goal=   None    Shift=    0.000
 RMSDP=4.30D-08 MaxDP=6.42D-07 DE=-1.97D-10 OVMax= 1.20D-06

 Cycle  10  Pass 1  IDiag  1:
 E= -111.897638520989     Delta-E=       -0.000000000002 Rises=F Damp=F
 DIIS: error= 2.64D-08 at cycle   5 NSaved=   5.
 NSaved= 5 IEnMin= 5 EnMin= -111.897638520989     IErMin= 5 ErrMin= 2.64D-08
 ErrMax= 2.64D-08  0.00D+00 EMaxC= 1.00D-01 BMatC= 3.95D-14 BMatP= 1.54D-12
 IDIUse=1 WtCom= 1.00D+00 WtEn= 0.00D+00
 Coeff-Com: -0.976D-03-0.193D-02-0.807D-02 0.765D-01 0.934D+00
 Coeff:     -0.976D-03-0.193D-02-0.807D-02 0.765D-01 0.934D+00
 Gap=     0.245 Goal=   None    Shift=    0.000
 RMSDP=9.44D-09 MaxDP=1.08D-07 DE=-2.16D-12 OVMax= 2.92D-07

 SCF Done:  E(RB3LYP) =  -111.897638521     A.U. after   10 cycles
            NFock= 10  Conv=0.94D-08     -V/T= 2.0030
 KE= 1.115590610587D+02 PE=-3.438073480219D+02 EE= 7.943884277495D+01
 Leave Link  502 at Sat Feb 16 13:59:56 2019, MaxMem=   196608000 cpu:        58.3
 (Enter /cm/shared/c3ddb/gaussian/09.d01/g09/l508.exe)
 QCSCF skips out because SCF is already converged.
 Leave Link  508 at Sat Feb 16 13:59:56 2019, MaxMem=   196608000 cpu:         0.0
 (Enter /cm/shared/c3ddb/gaussian/09.d01/g09/l801.exe)
 DoSCS=F DFT=T ScalE2(SS,OS)=  1.000000  1.000000
 Range of M.O.s used for correlation:     1    60
 NBasis=    60 NAE=     9 NBE=     9 NFC=     0 NFV=     0
 NROrb=     60 NOA=     9 NOB=     9 NVA=    51 NVB=    51
 Leave Link  801 at Sat Feb 16 13:59:56 2019, MaxMem=   196608000 cpu:         0.2
 (Enter /cm/shared/c3ddb/gaussian/09.d01/g09/l1101.exe)
 Using compressed storage, NAtomX=     6.
 Will process      7 centers per pass.
 Leave Link 1101 at Sat Feb 16 13:59:57 2019, MaxMem=   196608000 cpu:         6.0
 (Enter /cm/shared/c3ddb/gaussian/09.d01/g09/l1102.exe)
 Symmetrizing basis deriv contribution to polar:
 IMax=3 JMax=2 DiffMx= 0.00D+00
 Leave Link 1102 at Sat Feb 16 13:59:58 2019, MaxMem=   196608000 cpu:         0.6
 (Enter /cm/shared/c3ddb/gaussian/09.d01/g09/l1110.exe)
 Forming Gx(P) for the SCF density, NAtomX=     6.
 Integral derivatives from FoFJK, PRISM(SPDF).
 Do as many integral derivatives as possible in FoFJK.
 G2DrvN: MDV=     196607848.
 G2DrvN: will do     7 centers at a time, making    1 passes.
 Calling FoFCou, ICntrl=  3107 FMM=F I1Cent=   0 AccDes= 0.00D+00.
 FoFJK:  IHMeth= 1 ICntrl=    3107 DoSepK=F KAlg= 0 I1Cent=   0 FoldK=F
 IRaf=         0 NMat=   1 IRICut=       1 DoRegI=T DoRafI=F ISym2E= 1.
 FoFCou: FMM=F IPFlag=           0 FMFlag=      100000 FMFlg1=           0
         NFxFlg=           0 DoJE=F BraDBF=F KetDBF=F FulRan=T
         wScrn=  0.000000 ICntrl=    3107 IOpCl=  0 I1Cent=           0 NGrid=           0
         NMat0=    1 NMatS0=      1 NMatT0=    0 NMatD0=    1 NMtDS0=    0 NMtDT0=    0
 Petite list used in FoFCou.
 End of G2Drv F.D. properties file   721 does not exist.
 End of G2Drv F.D. properties file   722 does not exist.
 End of G2Drv F.D. properties file   788 does not exist.
 Leave Link 1110 at Sat Feb 16 14:00:00 2019, MaxMem=   196608000 cpu:        13.7
 (Enter /cm/shared/c3ddb/gaussian/09.d01/g09/l1002.exe)
 Minotr:  Closed shell wavefunction.
          IDoAtm=111111
          Direct CPHF calculation.
          Differentiating once with respect to nuclear coordinates.
          Using symmetry in CPHF.
          Requested convergence is 1.0D-08 RMS, and 1.0D-07 maximum.
          Secondary convergence is 1.0D-12 RMS, and 1.0D-12 maximum.
          NewPWx=T KeepS1=F KeepF1=F KeepIn=T MapXYZ=F SortEE=F KeepMc=T.
          MDV=     196607876 using IRadAn=       2.
 Generate precomputed XC quadrature information.
 Keep R1 ints in memory in symmetry-blocked form, NReq=2561469.
 FoFCou: FMM=F IPFlag=           0 FMFlag=           0 FMFlg1=           0
         NFxFlg=           0 DoJE=F BraDBF=F KetDBF=F FulRan=T
         wScrn=  0.000000 ICntrl=     600 IOpCl=  0 I1Cent=           0 NGrid=           0
         NMat0=    1 NMatS0=   1830 NMatT0=    0 NMatD0=    1 NMtDS0=    0 NMtDT0=    0
 Petite list used in FoFCou.
          Solving linear equations simultaneously, MaxMat=       0.
          There are    12 degrees of freedom in the 1st order CPHF.  IDoFFX=4 NUNeed=    12.
      9 vectors produced by pass  0 Test12= 3.83D-15 8.33D-09 XBig12= 8.18D-02 1.12D-01.
 AX will form     9 AO Fock derivatives at one time.
      9 vectors produced by pass  1 Test12= 3.83D-15 8.33D-09 XBig12= 1.60D-02 6.09D-02.
      9 vectors produced by pass  2 Test12= 3.83D-15 8.33D-09 XBig12= 8.07D-04 1.07D-02.
      9 vectors produced by pass  3 Test12= 3.83D-15 8.33D-09 XBig12= 2.23D-05 1.48D-03.
      9 vectors produced by pass  4 Test12= 3.83D-15 8.33D-09 XBig12= 9.12D-08 7.40D-05.
      8 vectors produced by pass  5 Test12= 3.83D-15 8.33D-09 XBig12= 2.18D-10 4.41D-06.
      3 vectors produced by pass  6 Test12= 3.83D-15 8.33D-09 XBig12= 9.48D-13 2.61D-07.
      1 vectors produced by pass  7 Test12= 3.83D-15 8.33D-09 XBig12= 1.76D-15 1.19D-08.
 InvSVY:  IOpt=1 It=  1 EMax= 1.33D-15
 Solved reduced A of dimension    57 with     9 vectors.
 FullF1:  Do perturbations    4 to    12.
 End of Minotr F.D. properties file   721 does not exist.
 End of Minotr F.D. properties file   722 does not exist.
 End of Minotr F.D. properties file   788 does not exist.
 Leave Link 1002 at Sat Feb 16 14:00:07 2019, MaxMem=   196608000 cpu:        42.4
 (Enter /cm/shared/c3ddb/gaussian/09.d01/g09/l601.exe)
 Copying SCF densities to generalized density rwf, IOpCl= 0 IROHF=0.

 **********************************************************************

            Population analysis using the SCF density.

 **********************************************************************

 Orbital symmetries:
       Occupied  (A) (B) (A) (B) (A) (A) (B) (B) (A)
       Virtual   (A) (B) (A) (B) (B) (A) (B) (A) (B) (B) (A) (B)
                 (A) (A) (B) (A) (B) (B) (A) (A) (B) (B) (B) (A)
                 (A) (A) (B) (A) (B) (A) (B) (A) (B) (A) (A) (B)
                 (B) (B) (A) (A) (B) (B) (A) (A) (B) (A) (A) (B)
                 (B) (B) (A)
 The electronic state is 1-A.
 Alpha  occ. eigenvalues --  -14.31091 -14.31081  -0.93730  -0.75388  -0.51390
 Alpha  occ. eigenvalues --   -0.43823  -0.40639  -0.35132  -0.20520
 Alpha virt. eigenvalues --    0.03958   0.06239   0.09534   0.13132   0.18041
 Alpha virt. eigenvalues --    0.35578   0.37546   0.42385   0.46022   0.58336
 Alpha virt. eigenvalues --    0.59047   0.67482   0.69333   0.73821   0.74438
 Alpha virt. eigenvalues --    0.94709   1.04818   1.14464   1.19129   1.34816
 Alpha virt. eigenvalues --    1.37763   1.63616   1.63745   1.68994   1.69321
 Alpha virt. eigenvalues --    1.74666   1.83124   1.86688   1.92664   2.17293
 Alpha virt. eigenvalues --    2.27170   2.34763   2.36687   2.53428   2.56941
 Alpha virt. eigenvalues --    2.61846   2.68483   2.69005   2.77267   2.82737
 Alpha virt. eigenvalues --    3.00456   3.04670   3.12925   3.62795   3.92058
 Alpha virt. eigenvalues --    4.25219   4.56551   4.73607   4.97167  35.47860
 Alpha virt. eigenvalues --   35.48284
          Condensed to atoms (all electrons):
               1          2          3          4          5          6
     1  N    6.544041   0.218722   0.361896   0.361917  -0.042070  -0.042142
     2  N    0.218722   6.544041  -0.042142  -0.042070   0.361917   0.361896
     3  H    0.361896  -0.042142   0.522807  -0.043337   0.008887  -0.009322
     4  H    0.361917  -0.042070  -0.043337   0.522851  -0.009399   0.008887
     5  H   -0.042070   0.361917   0.008887  -0.009399   0.522851  -0.043337
     6  H   -0.042142   0.361896  -0.009322   0.008887  -0.043337   0.522807
 Mulliken charges:
               1
     1  N   -0.402363
     2  N   -0.402363
     3  H    0.201211
     4  H    0.201152
     5  H    0.201152
     6  H    0.201211
 Sum of Mulliken charges =   0.00000
 Mulliken charges with hydrogens summed into heavy atoms:
               1
     1  N    0.000000
     2  N    0.000000
 APT charges:
               1
     1  N   -0.821822
     2  N   -0.821822
     3  H    0.410944
     4  H    0.410878
     5  H    0.410878
     6  H    0.410944
 Sum of APT charges =   0.00000
 APT charges with hydrogens summed into heavy atoms:
               1
     1  N    0.000000
     2  N    0.000000
 Electronic spatial extent (au):  <R**2>=             84.0492
 Charge=              0.0000 electrons
 Dipole moment (field-independent basis, Debye):
    X=              0.0000    Y=              0.0000    Z=              0.0035  Tot=              0.0035
 Quadrupole moment (field-independent basis, Debye-Ang):
   XX=            -13.6861   YY=            -14.0103   ZZ=            -10.6629
   XY=             -4.2485   XZ=              0.0000   YZ=              0.0000
 Traceless Quadrupole moment (field-independent basis, Debye-Ang):
   XX=             -0.8997   YY=             -1.2238   ZZ=              2.1235
   XY=             -4.2485   XZ=              0.0000   YZ=              0.0000
 Octapole moment (field-independent basis, Debye-Ang**2):
  XXX=              0.0000  YYY=              0.0000  ZZZ=              0.0067  XYY=              0.0000
  XXY=              0.0000  XXZ=             -0.0028  XZZ=              0.0000  YZZ=              0.0000
  YYZ=              0.0057  XYZ=              0.0035
 Hexadecapole moment (field-independent basis, Debye-Ang**3):
 XXXX=            -18.3745 YYYY=            -65.0982 ZZZZ=            -17.9554 XXXY=              1.7635
 XXXZ=              0.0000 YYYX=             -1.8157 YYYZ=              0.0000 ZZZX=              0.0000
 ZZZY=              0.0000 XXYY=            -13.7363 XXZZ=             -5.1407 YYZZ=            -11.6782
 XXYZ=              0.0000 YYXZ=              0.0000 ZZXY=             -1.0976
 N-N= 4.091180566731D+01 E-N=-3.438073490022D+02  KE= 1.115590610587D+02
 Symmetry A    KE= 5.746896639011D+01
 Symmetry B    KE= 5.409009466859D+01
  Exact polarizability:   0.000   0.000   0.000   0.000   0.000   0.000
 Approx polarizability:  18.012  -4.064  24.267   0.000   0.000  23.682
 No NMR shielding tensors so no spin-rotation constants.
 Leave Link  601 at Sat Feb 16 14:00:08 2019, MaxMem=   196608000 cpu:         7.1
 (Enter /cm/shared/c3ddb/gaussian/09.d01/g09/l701.exe)
 Compute integral second derivatives.
 ... and contract with generalized density number  0.
 Leave Link  701 at Sat Feb 16 14:00:09 2019, MaxMem=   196608000 cpu:         3.9
 (Enter /cm/shared/c3ddb/gaussian/09.d01/g09/l702.exe)
 L702 exits ... SP integral derivatives will be done elsewhere.
 Leave Link  702 at Sat Feb 16 14:00:09 2019, MaxMem=   196608000 cpu:         0.2
 (Enter /cm/shared/c3ddb/gaussian/09.d01/g09/l703.exe)
 Compute integral second derivatives, UseDBF=F ICtDFT=           0.
 Integral derivatives from FoFJK, PRISM(SPDF).
 Calling FoFJK, ICntrl=    100147 FMM=F ISym2X=1 I1Cent= 0 IOpClX= 0 NMat=1 NMatS=1 NMatT=0.
 FoFJK:  IHMeth= 1 ICntrl=  100147 DoSepK=F KAlg= 0 I1Cent=   0 FoldK=F
 IRaf=         0 NMat=   1 IRICut=       1 DoRegI=T DoRafI=F ISym2E= 1.
 FoFCou: FMM=F IPFlag=           0 FMFlag=      100000 FMFlg1=         800
         NFxFlg=           0 DoJE=F BraDBF=F KetDBF=F FulRan=T
         wScrn=  0.000000 ICntrl=  100147 IOpCl=  0 I1Cent=           0 NGrid=           0
         NMat0=    1 NMatS0=      1 NMatT0=    0 NMatD0=    1 NMtDS0=    0 NMtDT0=    0
 Petite list used in FoFCou.
 Leave Link  703 at Sat Feb 16 14:00:13 2019, MaxMem=   196608000 cpu:        19.9
 (Enter /cm/shared/c3ddb/gaussian/09.d01/g09/l716.exe)
 Dipole        = 7.22837549D-16-1.55431224D-15 1.39565826D-03
 Polarizability= 0.00000000D+00 0.00000000D+00 0.00000000D+00
                 0.00000000D+00 0.00000000D+00 0.00000000D+00
 ***** Axes restored to original set *****
 -------------------------------------------------------------------
 Center     Atomic                   Forces (Hartrees/Bohr)
 Number     Number              X              Y              Z
 -------------------------------------------------------------------
      1        7           0.000002751    0.000000259   -0.000021661
      2        7          -0.000002751    0.000000117    0.000021662
      3        1           0.000003093   -0.000001753    0.000009414
      4        1           0.000002631    0.000001507    0.000010291
      5        1          -0.000002633    0.000001568   -0.000010281
      6        1          -0.000003090   -0.000001698   -0.000009425
 -------------------------------------------------------------------
 Cartesian Forces:  Max     0.000021662 RMS     0.000008776
 Force constants in Cartesian coordinates: 
                1             2             3             4             5 
      1  0.459918D+00
      2  0.927822D-04  0.632546D+00
      3 -0.725756D-01  0.874940D-03  0.250462D+00
      4 -0.157278D+00  0.237978D-03 -0.661380D-01  0.459918D+00
      5  0.953047D-04 -0.100884D+00 -0.118042D-03  0.100639D-03  0.632543D+00
      6 -0.661384D-01 -0.116973D-03 -0.801300D-01 -0.725761D-01  0.144440D-02
      7 -0.126878D+00 -0.125790D+00  0.585066D-01 -0.243389D-01 -0.316759D-01
      8 -0.125462D+00 -0.269636D+00  0.100597D+00  0.397675D-02  0.319717D-02
      9  0.855583D-01  0.157360D+00 -0.898531D-01 -0.165109D-01 -0.209989D-01
     10 -0.127062D+00  0.125623D+00  0.591023D-01 -0.243614D-01  0.316193D-01
     11  0.125197D+00 -0.268339D+00 -0.101362D+00 -0.392910D-02  0.311583D-02
     12  0.862126D-01 -0.158095D+00 -0.909631D-01 -0.165460D-01  0.209447D-01
     13 -0.243183D-01 -0.317292D-01  0.104474D-01 -0.126672D+00 -0.125774D+00
     14  0.399146D-02  0.319445D-02  0.184129D-02 -0.125521D+00 -0.270375D+00
     15 -0.164882D-01 -0.209835D-01  0.514810D-02  0.851694D-01  0.157087D+00
     16 -0.243819D-01  0.315659D-01  0.106573D-01 -0.127268D+00  0.125635D+00
     17 -0.391428D-02  0.311835D-02 -0.183250D-02  0.125134D+00 -0.267597D+00
     18 -0.165686D-01  0.209597D-01  0.533585D-02  0.866015D-01 -0.158359D+00
                6             7             8             9            10 
      6  0.250466D+00
      7  0.104532D-01  0.150821D+00
      8  0.183544D-02  0.138037D+00  0.294679D+00
      9  0.521397D-02 -0.607430D-01 -0.118239D+00  0.847110D-01
     10  0.106519D-01  0.101735D-01 -0.184264D-01 -0.587458D-02  0.151003D+00
     11 -0.183795D-02  0.184799D-01 -0.305290D-01 -0.172607D-01 -0.137866D+00
     12  0.526984D-02 -0.580455D-02  0.171172D-01  0.146120D-02 -0.614417D-01
     13  0.581452D-01 -0.843880D-02  0.141571D-02 -0.418849D-02 -0.131813D-02
     14  0.100313D+00  0.142222D-02  0.212983D-02 -0.108576D-02  0.455913D-03
     15 -0.893180D-01 -0.416821D-02 -0.108477D-02 -0.243057D-02  0.176124D-02
     16  0.594642D-01 -0.133887D-02  0.459255D-03  0.175860D-02 -0.843440D-02
     17 -0.101637D+00 -0.472772D-03  0.159334D-03  0.223644D-03 -0.140544D-02
     18 -0.915017D-01  0.175598D-02 -0.225608D-03  0.897450D-03 -0.419917D-02
               11            12            13            14            15 
     11  0.293468D+00
     12  0.119140D+00  0.857315D-01
     13 -0.469436D-03  0.175863D-02  0.150574D+00
     14  0.172653D-03 -0.214550D-03  0.138030D+00  0.295406D+00
     15  0.212549D-03  0.917160D-03 -0.603792D-01 -0.117902D+00  0.842225D-01
     16 -0.141207D-02 -0.417894D-02  0.101735D-01 -0.183793D-01 -0.589507D-02
     17  0.211147D-02  0.110721D-02  0.185268D-01 -0.305285D-01 -0.173299D-01
     18  0.110816D-02 -0.241661D-02 -0.578365D-02  0.170480D-01  0.146076D-02
               16            17            18 
     16  0.151250D+00
     17 -0.137869D+00  0.292736D+00
     18 -0.618061D-01  0.119469D+00  0.862242D-01
 FormGI is forming the generalized inverse of G from B-inverse, IUseBI=4.
 Force constants in internal coordinates: 
                1             2             3             4             5 
      1  0.294239D+00
      2  0.278802D-02  0.428883D+00
      3  0.276110D-02 -0.106454D-02  0.428910D+00
      4  0.276110D-02 -0.223649D-02  0.471427D-03  0.428910D+00
      5  0.278802D-02  0.463791D-03 -0.223649D-02 -0.106454D-02  0.428883D+00
      6  0.515405D-01  0.552833D-02  0.165842D-02  0.491044D-02  0.644378D-03
      7  0.514969D-01  0.166348D-02  0.555518D-02  0.622851D-03  0.489301D-02
      8 -0.197740D-01  0.124941D-01  0.124934D-01 -0.163476D-02 -0.164349D-02
      9  0.514969D-01  0.489301D-02  0.622851D-03  0.555518D-02  0.166348D-02
     10  0.515405D-01  0.644378D-03  0.491044D-02  0.165842D-02  0.552833D-02
     11 -0.197740D-01 -0.164349D-02 -0.163476D-02  0.124934D-01  0.124941D-01
     12 -0.301023D-05 -0.796652D-02 -0.786341D-02  0.796845D-02  0.786750D-02
     13 -0.126645D-01 -0.801879D-02 -0.792407D-02 -0.792407D-02 -0.801879D-02
     14  0.126585D-01  0.791977D-02  0.802911D-02  0.802911D-02  0.791977D-02
     15 -0.301023D-05  0.786750D-02  0.796845D-02 -0.786341D-02 -0.796652D-02
                6             7             8             9            10 
      6  0.197873D+00
      7 -0.172534D-01  0.197814D+00
      8 -0.437505D-01 -0.437477D-01  0.533018D-01
      9  0.332754D-01 -0.776998D-02 -0.563220D-02  0.197814D+00
     10 -0.771252D-02  0.332754D-01 -0.564997D-02 -0.172534D-01  0.197873D+00
     11 -0.564997D-02 -0.563220D-02  0.329076D-02 -0.437477D-01 -0.437505D-01
     12 -0.410199D-02 -0.594457D-02 -0.144477D-01  0.406149D-02  0.593916D-02
     13 -0.643707D-02 -0.828284D-02 -0.142785D-01 -0.828284D-02 -0.643707D-02
     14  0.827424D-02  0.639976D-02  0.142789D-01  0.639976D-02  0.827424D-02
     15  0.593916D-02  0.406149D-02  0.144482D-01 -0.594457D-02 -0.410199D-02
               11            12            13            14            15 
     11  0.533018D-01
     12  0.144482D-01  0.190052D-01
     13 -0.142785D-01  0.779429D-04  0.203808D-01
     14  0.142789D-01  0.633779D-04 -0.202249D-01  0.203516D-01
     15 -0.144477D-01 -0.188638D-01  0.779429D-04  0.633779D-04  0.190052D-01
 Leave Link  716 at Sat Feb 16 14:00:13 2019, MaxMem=   196608000 cpu:         0.7
 (Enter /cm/shared/c3ddb/gaussian/09.d01/g09/l103.exe)

 GradGradGradGradGradGradGradGradGradGradGradGradGradGradGradGradGradGrad
 Berny optimization.
 Red2BG is reusing G-inverse.
 Internal  Forces:  Max     0.000012602 RMS     0.000007111
 Search for a local minimum.
 Step number   1 out of a maximum of   25 on scan point     1 out of    37
 All quantities printed in internal units (Hartrees-Bohrs-Radians)
 RMS Force = .73587D-05 SwitMx=.10000D-02 MixMth= 2
 Mixed Optimization -- En-DIIS/RFO-DIIS
 Second derivative matrix not updated -- analytic derivatives used.
 The second derivative matrix:
                          R1        R2        R3        R4        R5
           R1           0.29424
           R2           0.00279   0.42888
           R3           0.00276  -0.00106   0.42891
           R4           0.00276  -0.00224   0.00047   0.42891
           R5           0.00279   0.00046  -0.00224  -0.00106   0.42888
           A1           0.05154   0.00553   0.00166   0.00491   0.00064
           A2           0.05150   0.00166   0.00556   0.00062   0.00489
           A3          -0.01977   0.01249   0.01249  -0.00163  -0.00164
           A4           0.05150   0.00489   0.00062   0.00556   0.00166
           A5           0.05154   0.00064   0.00491   0.00166   0.00553
           A6          -0.01977  -0.00164  -0.00163   0.01249   0.01249
           D1           0.00000  -0.00797  -0.00786   0.00797   0.00787
           D2          -0.01266  -0.00802  -0.00792  -0.00792  -0.00802
           D3           0.01266   0.00792   0.00803   0.00803   0.00792
           D4           0.00000   0.00787   0.00797  -0.00786  -0.00797
                          A1        A2        A3        A4        A5
           A1           0.19787
           A2          -0.01725   0.19781
           A3          -0.04375  -0.04375   0.05330
           A4           0.03328  -0.00777  -0.00563   0.19781
           A5          -0.00771   0.03328  -0.00565  -0.01725   0.19787
           A6          -0.00565  -0.00563   0.00329  -0.04375  -0.04375
           D1          -0.00410  -0.00594  -0.01445   0.00406   0.00594
           D2          -0.00644  -0.00828  -0.01428  -0.00828  -0.00644
           D3           0.00827   0.00640   0.01428   0.00640   0.00827
           D4           0.00594   0.00406   0.01445  -0.00594  -0.00410
                          A6        D1        D2        D3        D4
           A6           0.05330
           D1           0.01445   0.01901
           D2          -0.01428   0.00008   0.02038
           D3           0.01428   0.00006  -0.02022   0.02035
           D4          -0.01445  -0.01886   0.00008   0.00006   0.01901
 ITU=  0
     Eigenvalues ---    0.02922   0.06510   0.15430   0.17413   0.17764
     Eigenvalues ---    0.25573   0.37395   0.42764   0.43026   0.43076
     Eigenvalues ---    0.432671000.000001000.000001000.000001000.00000
 RFO step:  Lambda= 0.00000000D+00 EMin= 2.92191340D-02
 Linear search not attempted -- first point.
 Iteration  1 RMS(Cart)=  0.00004254 RMS(Int)=  0.00000000
 Iteration  2 RMS(Cart)=  0.00000000 RMS(Int)=  0.00000000
 Iteration  1 RMS(Cart)=  0.00000017 RMS(Int)=  0.00000020
 ITry= 1 IFail=0 DXMaxC= 8.57D-05 DCOld= 1.00D+10 DXMaxT= 3.00D-01 DXLimC= 3.00D+00 Rises=F
 ClnCor:  largest displacement from symmetrization is 1.04D-05 for atom     2.
 Variable       Old X    -DE/DX   Delta X   Delta X   Delta X     New X
                                 (Linear)    (Quad)   (Total)
    R1        2.80992   0.00000   0.00000   0.00004   0.00005   2.80997
    R2        1.92647   0.00000   0.00000   0.00001   0.00001   1.92648
    R3        1.92647   0.00000   0.00000   0.00001   0.00001   1.92648
    R4        1.92647   0.00000   0.00000   0.00001   0.00001   1.92648
    R5        1.92647   0.00000   0.00000   0.00001   0.00001   1.92648
    A1        1.81111  -0.00001   0.00000  -0.00008  -0.00008   1.81103
    A2        1.81120  -0.00001   0.00000  -0.00008  -0.00008   1.81112
    A3        1.78951   0.00000   0.00000  -0.00005  -0.00005   1.78946
    A4        1.81120  -0.00001   0.00000  -0.00008  -0.00008   1.81112
    A5        1.81111  -0.00001   0.00000  -0.00007  -0.00008   1.81103
    A6        1.78951   0.00000   0.00000  -0.00004  -0.00005   1.78946
    D1       -3.13948   0.00000   0.00000   0.00000  -0.00001  -3.13949
    D2        1.27860   0.00001   0.00000   0.00009   0.00010   1.27870
    D3       -1.27437  -0.00001   0.00000  -0.00011  -0.00012  -1.27449
    D4       -3.13948   0.00000   0.00000  -0.00002  -0.00001  -3.13949
         Item               Value     Threshold  Converged?
 Maximum Force            0.000013     0.000450     YES
 RMS     Force            0.000007     0.000300     YES
 Maximum Displacement     0.000086     0.001800     YES
 RMS     Displacement     0.000045     0.001200     YES
 Predicted change in Energy=-2.504170D-09
 Optimization completed.
    -- Stationary point found.
                           ----------------------------
                           !   Optimized Parameters   !
                           ! (Angstroms and Degrees)  !
 --------------------------                            --------------------------
 ! Name  Definition              Value          Derivative Info.                !
 --------------------------------------------------------------------------------
 ! R1    R(1,2)                  1.4869         -DE/DX =    0.0                 !
 ! R2    R(1,3)                  1.0194         -DE/DX =    0.0                 !
 ! R3    R(1,4)                  1.0194         -DE/DX =    0.0                 !
 ! R4    R(2,5)                  1.0194         -DE/DX =    0.0                 !
 ! R5    R(2,6)                  1.0194         -DE/DX =    0.0                 !
 ! A1    A(2,1,3)              103.7688         -DE/DX =    0.0                 !
 ! A2    A(2,1,4)              103.7741         -DE/DX =    0.0                 !
 ! A3    A(3,1,4)              102.5314         -DE/DX =    0.0                 !
 ! A4    A(1,2,5)              103.7741         -DE/DX =    0.0                 !
 ! A5    A(1,2,6)              103.7688         -DE/DX =    0.0                 !
 ! A6    A(5,2,6)              102.5314         -DE/DX =    0.0                 !
 ! D1    D(3,1,2,5)           -179.8789         -DE/DX =    0.0                 !
 ! D2    D(3,1,2,6)             73.2584         -DE/DX =    0.0                 !
 ! D3    D(4,1,2,5)            -73.0162         -DE/DX =    0.0                 !
 ! D4    D(4,1,2,6)           -179.8789         -DE/DX =    0.0                 !
 --------------------------------------------------------------------------------
 Lowest energy point so far.  Saving SCF results.
 Iteration  1 RMS(Cart)=  0.02623491 RMS(Int)=  0.03055445
 Iteration  2 RMS(Cart)=  0.00088413 RMS(Int)=  0.03053757
 Iteration  3 RMS(Cart)=  0.00003381 RMS(Int)=  0.03053755
 Iteration  4 RMS(Cart)=  0.00000204 RMS(Int)=  0.03053755
 Iteration  5 RMS(Cart)=  0.00000008 RMS(Int)=  0.03053755
 Iteration  1 RMS(Cart)=  0.01204964 RMS(Int)=  0.01400574
 Iteration  2 RMS(Cart)=  0.00553093 RMS(Int)=  0.01564438
 Iteration  3 RMS(Cart)=  0.00253432 RMS(Int)=  0.01730781
 Iteration  4 RMS(Cart)=  0.00116017 RMS(Int)=  0.01820653
 Iteration  5 RMS(Cart)=  0.00053086 RMS(Int)=  0.01864167
 Iteration  6 RMS(Cart)=  0.00024286 RMS(Int)=  0.01884532
 Iteration  7 RMS(Cart)=  0.00011109 RMS(Int)=  0.01893940
 Iteration  8 RMS(Cart)=  0.00005081 RMS(Int)=  0.01898263
 Iteration  9 RMS(Cart)=  0.00002324 RMS(Int)=  0.01900244
 Iteration 10 RMS(Cart)=  0.00001063 RMS(Int)=  0.01901151
 Iteration 11 RMS(Cart)=  0.00000486 RMS(Int)=  0.01901566
 Iteration 12 RMS(Cart)=  0.00000222 RMS(Int)=  0.01901755
 Iteration 13 RMS(Cart)=  0.00000102 RMS(Int)=  0.01901842
 Iteration 14 RMS(Cart)=  0.00000047 RMS(Int)=  0.01901882
 GradGradGradGradGradGradGradGradGradGradGradGradGradGradGradGradGradGrad

 Leave Link  103 at Sat Feb 16 14:00:19 2019, MaxMem=   196608000 cpu:        33.0
 (Enter /cm/shared/c3ddb/gaussian/09.d01/g09/l202.exe)
                          Input orientation:                          
 ---------------------------------------------------------------------
 Center     Atomic      Atomic             Coordinates (Angstroms)
 Number     Number       Type             X           Y           Z
 ---------------------------------------------------------------------
      1          7           0       -0.648814   -0.016166   -0.393360
      2          7           0        0.649434   -0.016105    0.331645
      3          1           0       -1.163780   -0.762637    0.073000
      4          1           0       -1.134875    0.778458    0.020926
      5          1           0        1.131442    0.825053    0.015379
      6          1           0        1.166594   -0.808604   -0.047592
 ---------------------------------------------------------------------
                    Distance matrix (angstroms):
                    1          2          3          4          5
     1  N    0.000000
     2  N    1.486971   0.000000
     3  H    1.019755   1.977866   0.000000
     4  H    1.019468   1.977786   1.542246   0.000000
     5  H    2.010977   1.019756   2.791437   2.266802   0.000000
     6  H    2.010776   1.019475   2.333945   2.796465   1.635248
                    6
     6  H    0.000000
 Stoichiometry    H4N2
 Framework group  C1[X(H4N2)]
 Deg. of freedom    12
 Full point group                 C1      NOp   1
 Omega: Change in point group or standard orientation.

 Old FWG=C02  [X(H4N2)]
 New FWG=C01  [X(H4N2)]
 RotChk:  IX=2 Diff= 2.36D+00
 Largest Abelian subgroup         C1      NOp   1
 Largest concise Abelian subgroup C1      NOp   1
                         Standard orientation:                         
 ---------------------------------------------------------------------
 Center     Atomic      Atomic             Coordinates (Angstroms)
 Number     Number       Type             X           Y           Z
 ---------------------------------------------------------------------
      1          7           0        0.729670   -0.007096    0.166615
      2          7           0       -0.723852   -0.003853   -0.146988
      3          1           0        1.085660   -0.747762   -0.437194
      4          1           0        1.073388    0.792695   -0.363959
      5          1           0       -1.092213    0.832986    0.304578
      6          1           0       -1.107560   -0.801278    0.359186
 ---------------------------------------------------------------------
 Rotational constants (GHZ):    138.5185104     24.2731683     22.7036596
 Leave Link  202 at Sat Feb 16 14:00:19 2019, MaxMem=   196608000 cpu:         0.5
 (Enter /cm/shared/c3ddb/gaussian/09.d01/g09/l301.exe)
 Standard basis: 6-311G(2d,d,p) (5D, 7F)
 Ernie: Thresh=  0.10000D-02 Tol=  0.10000D-05 Strict=F.
 There are    62 symmetry adapted cartesian basis functions of A   symmetry.
 There are    60 symmetry adapted basis functions of A   symmetry.
    60 basis functions,    96 primitive gaussians,    62 cartesian basis functions
     9 alpha electrons        9 beta electrons
       nuclear repulsion energy        40.9055450351 Hartrees.
 IExCor=  402 DFT=T Ex+Corr=B3LYP ExCW=0 ScaHFX=  0.200000
 ScaDFX=  0.800000  0.720000  1.000000  0.810000 ScalE2=  1.000000  1.000000
 IRadAn=      0 IRanWt=     -1 IRanGd=            0 ICorTp=0 IEmpDi=  4
 NAtoms=    6 NActive=    6 NUniq=    6 SFac= 1.00D+00 NAtFMM=   60 NAOKFM=F Big=F
 Integral buffers will be    131072 words long.
 Raffenetti 2 integral format.
 Two-electron integral symmetry is turned on.
 Leave Link  301 at Sat Feb 16 14:00:19 2019, MaxMem=   196608000 cpu:         0.3
 (Enter /cm/shared/c3ddb/gaussian/09.d01/g09/l302.exe)
 NPDir=0 NMtPBC=     1 NCelOv=     1 NCel=       1 NClECP=     1 NCelD=      1
         NCelK=      1 NCelE2=     1 NClLst=     1 CellRange=     0.0.
 One-electron integrals computed using PRISM.
 NBasis=    60 RedAO= T EigKep=  5.05D-03  NBF=    60
 NBsUse=    60 1.00D-06 EigRej= -1.00D+00 NBFU=    60
 Precomputing XC quadrature grid using
 IXCGrd= 4 IRadAn=           0 IRanWt=          -1 IRanGd=           0 AccXCQ= 0.00D+00.
 Generated NRdTot=       0 NPtTot=           0 NUsed=           0 NTot=          32
 NSgBfM=    62    62    62    62    62 MxSgAt=     6 MxSgA2=     6.
 Leave Link  302 at Sat Feb 16 14:00:20 2019, MaxMem=   196608000 cpu:         3.6
 (Enter /cm/shared/c3ddb/gaussian/09.d01/g09/l303.exe)
 DipDrv:  MaxL=1.
 Leave Link  303 at Sat Feb 16 14:00:20 2019, MaxMem=   196608000 cpu:         1.0
 (Enter /cm/shared/c3ddb/gaussian/09.d01/g09/l401.exe)
 Initial guess from the checkpoint file:  "check.chk"
 B after Tr=     0.000000    0.000000    0.000000
         Rot=    0.552360    0.548471   -0.442460   -0.445318 Ang= 112.94 deg.
 Guess basis will be translated and rotated to current coordinates.
 JPrj=2 DoOrth=T DoCkMO=T.
 Generating alternative initial guess.
 ExpMin= 1.03D-01 ExpMax= 6.29D+03 ExpMxC= 9.49D+02 IAcc=1 IRadAn=         1 AccDes= 0.00D+00
 Harris functional with IExCor=  402 and IRadAn=       1 diagonalized for initial guess.
 HarFok:  IExCor=  402 AccDes= 0.00D+00 IRadAn=         1 IDoV= 1 UseB2=F ITyADJ=14
 ICtDFT=  3500011 ScaDFX=  1.000000  1.000000  1.000000  1.000000
 FoFCou: FMM=F IPFlag=           0 FMFlag=      100000 FMFlg1=           0
         NFxFlg=           0 DoJE=T BraDBF=F KetDBF=T FulRan=T
         wScrn=  0.000000 ICntrl=     500 IOpCl=  0 I1Cent=   200000004 NGrid=           0
         NMat0=    1 NMatS0=      1 NMatT0=    0 NMatD0=    1 NMtDS0=    0 NMtDT0=    0
 Petite list used in FoFCou.
 Harris En= -111.909227118995    
 Leave Link  401 at Sat Feb 16 14:00:21 2019, MaxMem=   196608000 cpu:         8.9
 (Enter /cm/shared/c3ddb/gaussian/09.d01/g09/l502.exe)
 Closed shell SCF:
 Using DIIS extrapolation, IDIIS=  1040.
 Integral symmetry usage will be decided dynamically.
 Keep R1 ints in memory in canonical form, NReq=2575347.
 IVT=       18440 IEndB=       18440 NGot=   196608000 MDV=   194914196
 LenX=   194914196 LenY=   194909911
 Requested convergence on RMS density matrix=1.00D-08 within  64 cycles.
 Requested convergence on MAX density matrix=1.00D-06.
 Requested convergence on             energy=1.00D-06.
 No special actions if energy rises.
 FoFCou: FMM=F IPFlag=           0 FMFlag=           0 FMFlg1=           0
         NFxFlg=           0 DoJE=F BraDBF=F KetDBF=F FulRan=T
         wScrn=  0.000000 ICntrl=     600 IOpCl=  0 I1Cent=           0 NGrid=           0
         NMat0=    1 NMatS0=   1830 NMatT0=    0 NMatD0=    1 NMtDS0=    0 NMtDT0=    0
 Symmetry not used in FoFCou.
 Integral accuracy reduced to 1.0D-05 until final iterations.

 Cycle   1  Pass 0  IDiag  1:
 E= -111.895096255956    
 DIIS: error= 3.31D-03 at cycle   1 NSaved=   1.
 NSaved= 1 IEnMin= 1 EnMin= -111.895096255956     IErMin= 1 ErrMin= 3.31D-03
 ErrMax= 3.31D-03  0.00D+00 EMaxC= 1.00D-01 BMatC= 1.18D-03 BMatP= 1.18D-03
 IDIUse=3 WtCom= 9.67D-01 WtEn= 3.31D-02
 Coeff-Com:  0.100D+01
 Coeff-En:   0.100D+01
 Coeff:      0.100D+01
 Gap=     0.532 Goal=   None    Shift=    0.000
 GapD=    0.532 DampG=2.000 DampE=1.000 DampFc=2.0000 IDamp=-1.
 RMSDP=8.68D-04 MaxDP=1.11D-02              OVMax= 1.80D-02

 Cycle   2  Pass 0  IDiag  1:
 E= -111.896633195513     Delta-E=       -0.001536939557 Rises=F Damp=F
 DIIS: error= 3.84D-04 at cycle   2 NSaved=   2.
 NSaved= 2 IEnMin= 2 EnMin= -111.896633195513     IErMin= 2 ErrMin= 3.84D-04
 ErrMax= 3.84D-04  0.00D+00 EMaxC= 1.00D-01 BMatC= 1.43D-05 BMatP= 1.18D-03
 IDIUse=3 WtCom= 9.96D-01 WtEn= 3.84D-03
 Coeff-Com: -0.431D-01 0.104D+01
 Coeff-En:   0.000D+00 0.100D+01
 Coeff:     -0.429D-01 0.104D+01
 Gap=     0.245 Goal=   None    Shift=    0.000
 RMSDP=1.37D-04 MaxDP=1.73D-03 DE=-1.54D-03 OVMax= 2.16D-03

 Cycle   3  Pass 0  IDiag  1:
 E= -111.896644020379     Delta-E=       -0.000010824866 Rises=F Damp=F
 DIIS: error= 4.29D-04 at cycle   3 NSaved=   3.
 NSaved= 3 IEnMin= 3 EnMin= -111.896644020379     IErMin= 2 ErrMin= 3.84D-04
 ErrMax= 4.29D-04  0.00D+00 EMaxC= 1.00D-01 BMatC= 1.05D-05 BMatP= 1.43D-05
 IDIUse=3 WtCom= 9.96D-01 WtEn= 4.29D-03
 Coeff-Com: -0.283D-01 0.502D+00 0.526D+00
 Coeff-En:   0.000D+00 0.658D-01 0.934D+00
 Coeff:     -0.282D-01 0.500D+00 0.528D+00
 Gap=     0.244 Goal=   None    Shift=    0.000
 RMSDP=3.87D-05 MaxDP=6.63D-04 DE=-1.08D-05 OVMax= 1.01D-03

 Cycle   4  Pass 0  IDiag  1:
 E= -111.896651414699     Delta-E=       -0.000007394320 Rises=F Damp=F
 DIIS: error= 1.85D-04 at cycle   4 NSaved=   4.
 NSaved= 4 IEnMin= 4 EnMin= -111.896651414699     IErMin= 4 ErrMin= 1.85D-04
 ErrMax= 1.85D-04  0.00D+00 EMaxC= 1.00D-01 BMatC= 1.13D-06 BMatP= 1.05D-05
 IDIUse=3 WtCom= 9.98D-01 WtEn= 1.85D-03
 Coeff-Com: -0.859D-02 0.125D+00 0.273D+00 0.610D+00
 Coeff-En:   0.000D+00 0.000D+00 0.366D-01 0.963D+00
 Coeff:     -0.857D-02 0.125D+00 0.273D+00 0.611D+00
 Gap=     0.244 Goal=   None    Shift=    0.000
 RMSDP=1.28D-05 MaxDP=1.75D-04 DE=-7.39D-06 OVMax= 3.45D-04

 Cycle   5  Pass 0  IDiag  1:
 E= -111.896652299111     Delta-E=       -0.000000884412 Rises=F Damp=F
 DIIS: error= 3.48D-05 at cycle   5 NSaved=   5.
 NSaved= 5 IEnMin= 5 EnMin= -111.896652299111     IErMin= 5 ErrMin= 3.48D-05
 ErrMax= 3.48D-05  0.00D+00 EMaxC= 1.00D-01 BMatC= 5.34D-08 BMatP= 1.13D-06
 IDIUse=1 WtCom= 1.00D+00 WtEn= 0.00D+00
 Coeff-Com: -0.643D-03-0.239D-03 0.574D-01 0.245D+00 0.699D+00
 Coeff:     -0.643D-03-0.239D-03 0.574D-01 0.245D+00 0.699D+00
 Gap=     0.245 Goal=   None    Shift=    0.000
 RMSDP=3.70D-06 MaxDP=5.41D-05 DE=-8.84D-07 OVMax= 8.00D-05

 Initial convergence to 1.0D-05 achieved.  Increase integral accuracy.
 Cycle   6  Pass 1  IDiag  1:
 E= -111.896651886466     Delta-E=        0.000000412645 Rises=F Damp=F
 DIIS: error= 1.58D-05 at cycle   1 NSaved=   1.
 NSaved= 1 IEnMin= 1 EnMin= -111.896651886466     IErMin= 1 ErrMin= 1.58D-05
 ErrMax= 1.58D-05  0.00D+00 EMaxC= 1.00D-01 BMatC= 1.02D-08 BMatP= 1.02D-08
 IDIUse=1 WtCom= 1.00D+00 WtEn= 0.00D+00
 Coeff-Com:  0.100D+01
 Coeff:      0.100D+01
 Gap=     0.244 Goal=   None    Shift=    0.000
 RMSDP=3.70D-06 MaxDP=5.41D-05 DE= 4.13D-07 OVMax= 4.85D-05

 Cycle   7  Pass 1  IDiag  1:
 E= -111.896651882343     Delta-E=        0.000000004123 Rises=F Damp=F
 DIIS: error= 2.08D-05 at cycle   2 NSaved=   2.
 NSaved= 2 IEnMin= 1 EnMin= -111.896651886466     IErMin= 1 ErrMin= 1.58D-05
 ErrMax= 2.08D-05  0.00D+00 EMaxC= 1.00D-01 BMatC= 1.62D-08 BMatP= 1.02D-08
 IDIUse=1 WtCom= 1.00D+00 WtEn= 0.00D+00
 Coeff-Com:  0.560D+00 0.440D+00
 Coeff:      0.560D+00 0.440D+00
 Gap=     0.245 Goal=   None    Shift=    0.000
 RMSDP=1.32D-06 MaxDP=2.45D-05 DE= 4.12D-09 OVMax= 2.70D-05

 Cycle   8  Pass 1  IDiag  1:
 E= -111.896651895221     Delta-E=       -0.000000012878 Rises=F Damp=F
 DIIS: error= 2.00D-06 at cycle   3 NSaved=   3.
 NSaved= 3 IEnMin= 3 EnMin= -111.896651895221     IErMin= 3 ErrMin= 2.00D-06
 ErrMax= 2.00D-06  0.00D+00 EMaxC= 1.00D-01 BMatC= 1.23D-10 BMatP= 1.02D-08
 IDIUse=1 WtCom= 1.00D+00 WtEn= 0.00D+00
 Coeff-Com:  0.106D+00 0.120D+00 0.774D+00
 Coeff:      0.106D+00 0.120D+00 0.774D+00
 Gap=     0.245 Goal=   None    Shift=    0.000
 RMSDP=2.09D-07 MaxDP=2.10D-06 DE=-1.29D-08 OVMax= 5.72D-06

 Cycle   9  Pass 1  IDiag  1:
 E= -111.896651895274     Delta-E=       -0.000000000052 Rises=F Damp=F
 DIIS: error= 1.38D-06 at cycle   4 NSaved=   4.
 NSaved= 4 IEnMin= 4 EnMin= -111.896651895274     IErMin= 4 ErrMin= 1.38D-06
 ErrMax= 1.38D-06  0.00D+00 EMaxC= 1.00D-01 BMatC= 7.03D-11 BMatP= 1.23D-10
 IDIUse=1 WtCom= 1.00D+00 WtEn= 0.00D+00
 Coeff-Com:  0.675D-02 0.265D-01 0.469D+00 0.498D+00
 Coeff:      0.675D-02 0.265D-01 0.469D+00 0.498D+00
 Gap=     0.245 Goal=   None    Shift=    0.000
 RMSDP=8.19D-08 MaxDP=1.54D-06 DE=-5.24D-11 OVMax= 2.42D-06

 Cycle  10  Pass 1  IDiag  1:
 E= -111.896651895329     Delta-E=       -0.000000000055 Rises=F Damp=F
 DIIS: error= 1.53D-07 at cycle   5 NSaved=   5.
 NSaved= 5 IEnMin= 5 EnMin= -111.896651895329     IErMin= 5 ErrMin= 1.53D-07
 ErrMax= 1.53D-07  0.00D+00 EMaxC= 1.00D-01 BMatC= 1.48D-12 BMatP= 7.03D-11
 IDIUse=1 WtCom= 1.00D+00 WtEn= 0.00D+00
 Coeff-Com: -0.687D-02 0.123D-02 0.146D+00 0.201D+00 0.658D+00
 Coeff:     -0.687D-02 0.123D-02 0.146D+00 0.201D+00 0.658D+00
 Gap=     0.245 Goal=   None    Shift=    0.000
 RMSDP=2.11D-08 MaxDP=2.21D-07 DE=-5.52D-11 OVMax= 3.50D-07

 Cycle  11  Pass 1  IDiag  1:
 E= -111.896651895330     Delta-E=       -0.000000000001 Rises=F Damp=F
 DIIS: error= 1.08D-08 at cycle   6 NSaved=   6.
 NSaved= 6 IEnMin= 6 EnMin= -111.896651895330     IErMin= 6 ErrMin= 1.08D-08
 ErrMax= 1.08D-08  0.00D+00 EMaxC= 1.00D-01 BMatC= 8.30D-15 BMatP= 1.48D-12
 IDIUse=1 WtCom= 1.00D+00 WtEn= 0.00D+00
 Coeff-Com: -0.631D-03-0.186D-03 0.821D-03-0.303D-02 0.239D-01 0.979D+00
 Coeff:     -0.631D-03-0.186D-03 0.821D-03-0.303D-02 0.239D-01 0.979D+00
 Gap=     0.245 Goal=   None    Shift=    0.000
 RMSDP=3.61D-09 MaxDP=3.95D-08 DE=-1.08D-12 OVMax= 1.00D-07

 SCF Done:  E(RB3LYP) =  -111.896651895     A.U. after   11 cycles
            NFock= 11  Conv=0.36D-08     -V/T= 2.0030
 KE= 1.115564247651D+02 PE=-3.437926114497D+02 EE= 7.943398975413D+01
 Leave Link  502 at Sat Feb 16 14:00:28 2019, MaxMem=   196608000 cpu:        36.0
 (Enter /cm/shared/c3ddb/gaussian/09.d01/g09/l508.exe)
 QCSCF skips out because SCF is already converged.
 Leave Link  508 at Sat Feb 16 14:00:28 2019, MaxMem=   196608000 cpu:         0.0
 (Enter /cm/shared/c3ddb/gaussian/09.d01/g09/l701.exe)
 Compute integral first derivatives.
 ... and contract with generalized density number  0.
 Leave Link  701 at Sat Feb 16 14:00:28 2019, MaxMem=   196608000 cpu:         3.1
 (Enter /cm/shared/c3ddb/gaussian/09.d01/g09/l702.exe)
 L702 exits ... SP integral derivatives will be done elsewhere.
 Leave Link  702 at Sat Feb 16 14:00:29 2019, MaxMem=   196608000 cpu:         0.2
 (Enter /cm/shared/c3ddb/gaussian/09.d01/g09/l703.exe)
 Compute integral first derivatives, UseDBF=F ICtDFT=           0.
 Integral derivatives from FoFJK, PRISM(SPDF).
 Calling FoFJK, ICntrl=      2127 FMM=F ISym2X=0 I1Cent= 0 IOpClX= 0 NMat=1 NMatS=1 NMatT=0.
 FoFJK:  IHMeth= 1 ICntrl=    2127 DoSepK=F KAlg= 0 I1Cent=   0 FoldK=F
 IRaf=         0 NMat=   1 IRICut=       1 DoRegI=T DoRafI=F ISym2E= 0.
 FoFCou: FMM=F IPFlag=           0 FMFlag=      100000 FMFlg1=         800
         NFxFlg=           0 DoJE=F BraDBF=F KetDBF=F FulRan=T
         wScrn=  0.000000 ICntrl=    2127 IOpCl=  0 I1Cent=           0 NGrid=           0
         NMat0=    1 NMatS0=      1 NMatT0=    0 NMatD0=    1 NMtDS0=    0 NMtDT0=    0
 Symmetry not used in FoFCou.
 Leave Link  703 at Sat Feb 16 14:00:30 2019, MaxMem=   196608000 cpu:         5.7
 (Enter /cm/shared/c3ddb/gaussian/09.d01/g09/l716.exe)
 Dipole        =-3.87614681D-02 5.45283939D-02-6.98464596D-02
 ***** Axes restored to original set *****
 -------------------------------------------------------------------
 Center     Atomic                   Forces (Hartrees/Bohr)
 Number     Number              X              Y              Z
 -------------------------------------------------------------------
      1        7          -0.001528765    0.000188041    0.006062405
      2        7          -0.001782901    0.000043077    0.005745972
      3        1           0.001006680   -0.005664992   -0.002823577
      4        1           0.000925401    0.005501807   -0.003209488
      5        1           0.000894866   -0.005025397   -0.002940466
      6        1           0.000484719    0.004957463   -0.002834845
 -------------------------------------------------------------------
 Cartesian Forces:  Max     0.006062405 RMS     0.003538492
 Leave Link  716 at Sat Feb 16 14:00:30 2019, MaxMem=   196608000 cpu:         0.2
 (Enter /cm/shared/c3ddb/gaussian/09.d01/g09/l103.exe)

 GradGradGradGradGradGradGradGradGradGradGradGradGradGradGradGradGradGrad
 Berny optimization.
 FormGI is forming the generalized inverse of G from B-inverse, IUseBI=4.
 Internal  Forces:  Max     0.006130501 RMS     0.003215388
 Search for a local minimum.
 Step number   1 out of a maximum of   25 on scan point     2 out of    37
 All quantities printed in internal units (Hartrees-Bohrs-Radians)
 RMS Force = .24758D-02 SwitMx=.10000D-02 MixMth= 1
 Mixed Optimization -- RFO/linear search
 Second derivative matrix not updated -- first step.
 The second derivative matrix:
                          R1        R2        R3        R4        R5
           R1           0.29424
           R2           0.00279   0.42888
           R3           0.00276  -0.00106   0.42891
           R4           0.00276  -0.00224   0.00047   0.42891
           R5           0.00279   0.00046  -0.00224  -0.00106   0.42888
           A1           0.05154   0.00553   0.00166   0.00491   0.00064
           A2           0.05150   0.00166   0.00556   0.00062   0.00489
           A3          -0.01977   0.01249   0.01249  -0.00163  -0.00164
           A4           0.05150   0.00489   0.00062   0.00556   0.00166
           A5           0.05154   0.00064   0.00491   0.00166   0.00553
           A6          -0.01977  -0.00164  -0.00163   0.01249   0.01249
           D1           0.00000  -0.00797  -0.00786   0.00797   0.00787
           D2          -0.01266  -0.00802  -0.00792  -0.00792  -0.00802
           D3           0.01266   0.00792   0.00803   0.00803   0.00792
           D4           0.00000   0.00787   0.00797  -0.00786  -0.00797
                          A1        A2        A3        A4        A5
           A1           0.19787
           A2          -0.01725   0.19781
           A3          -0.04375  -0.04375   0.05330
           A4           0.03328  -0.00777  -0.00563   0.19781
           A5          -0.00771   0.03328  -0.00565  -0.01725   0.19787
           A6          -0.00565  -0.00563   0.00329  -0.04375  -0.04375
           D1          -0.00410  -0.00594  -0.01445   0.00406   0.00594
           D2          -0.00644  -0.00828  -0.01428  -0.00828  -0.00644
           D3           0.00827   0.00640   0.01428   0.00640   0.00827
           D4           0.00594   0.00406   0.01445  -0.00594  -0.00410
                          A6        D1        D2        D3        D4
           A6           0.05330
           D1           0.01445   0.01901
           D2          -0.01428   0.00008   0.02038
           D3           0.01428   0.00006  -0.02022   0.02035
           D4          -0.01445  -0.01886   0.00008   0.00006   0.01901
 ITU=  0
     Eigenvalues ---    0.02912   0.06505   0.15404   0.17413   0.17721
     Eigenvalues ---    0.25573   0.37350   0.42764   0.43021   0.43078
     Eigenvalues ---    0.432671000.000001000.000001000.000001000.00000
 RFO step:  Lambda=-1.83454715D-03 EMin= 2.91162611D-02
 Linear search not attempted -- first point.
 Iteration  1 RMS(Cart)=  0.04939108 RMS(Int)=  0.00280850
 Iteration  2 RMS(Cart)=  0.00235774 RMS(Int)=  0.00048352
 Iteration  3 RMS(Cart)=  0.00000103 RMS(Int)=  0.00048351
 Iteration  4 RMS(Cart)=  0.00000000 RMS(Int)=  0.00048351
 Iteration  1 RMS(Cart)=  0.00000158 RMS(Int)=  0.00000183
 Iteration  2 RMS(Cart)=  0.00000072 RMS(Int)=  0.00000205
 ITry= 1 IFail=0 DXMaxC= 9.13D-02 DCOld= 1.00D+10 DXMaxT= 3.00D-01 DXLimC= 3.00D+00 Rises=F
 Variable       Old X    -DE/DX   Delta X   Delta X   Delta X     New X
                                 (Linear)    (Quad)   (Total)
    R1        2.80997  -0.00037   0.00000  -0.00142  -0.00142   2.80855
    R2        1.92706   0.00235   0.00000  -0.00036  -0.00036   1.92669
    R3        1.92652   0.00254   0.00000   0.00003   0.00003   1.92654
    R4        1.92706  -0.00281   0.00000  -0.00138  -0.00138   1.92568
    R5        1.92653  -0.00255   0.00000  -0.00070  -0.00070   1.92583
    A1        1.79051   0.00131   0.00000   0.01877   0.01849   1.80900
    A2        1.79066   0.00173   0.00000   0.02517   0.02490   1.81556
    A3        1.71525   0.00516   0.00000   0.07438   0.07347   1.78872
    A4        1.83537  -0.00132   0.00000  -0.01586  -0.01616   1.81921
    A5        1.83536  -0.00206   0.00000  -0.02350  -0.02380   1.81156
    A6        1.86092  -0.00408   0.00000  -0.06106  -0.06200   1.79892
    D1       -2.96495  -0.00613   0.00000   0.00000   0.00000  -2.96494
    D2        1.35714  -0.00022   0.00000   0.08382   0.08297   1.44011
    D3       -1.19173   0.00017   0.00000   0.09092   0.09177  -1.09996
    D4        3.13036   0.00608   0.00000   0.17475   0.17473  -2.97809
         Item               Value     Threshold  Converged?
 Maximum Force            0.005597     0.000450     NO 
 RMS     Force            0.002476     0.000300     NO 
 Maximum Displacement     0.091346     0.001800     NO 
 RMS     Displacement     0.049362     0.001200     NO 
 Predicted change in Energy=-9.688974D-04
 Lowest energy point so far.  Saving SCF results.
 GradGradGradGradGradGradGradGradGradGradGradGradGradGradGradGradGradGrad

 Leave Link  103 at Sat Feb 16 14:00:33 2019, MaxMem=   196608000 cpu:        16.2
 (Enter /cm/shared/c3ddb/gaussian/09.d01/g09/l202.exe)
                          Input orientation:                          
 ---------------------------------------------------------------------
 Center     Atomic      Atomic             Coordinates (Angstroms)
 Number     Number       Type             X           Y           Z
 ---------------------------------------------------------------------
      1          7           0       -0.649393   -0.032452   -0.363310
      2          7           0        0.649625   -0.033025    0.358770
      3          1           0       -1.177792   -0.776374    0.091533
      4          1           0       -1.118385    0.808122   -0.027412
      5          1           0        1.117545    0.811698    0.033345
      6          1           0        1.178401   -0.777971   -0.092926
 ---------------------------------------------------------------------
                    Distance matrix (angstroms):
                    1          2          3          4          5
     1  N    0.000000
     2  N    1.486219   0.000000
     3  H    1.019563   1.990838   0.000000
     4  H    1.019483   1.995627   1.590064   0.000000
     5  H    1.997998   1.019024   2.791762   2.236759   0.000000
     6  H    1.992420   1.019106   2.363403   2.791991   1.595837
                    6
     6  H    0.000000
 Stoichiometry    H4N2
 Framework group  C1[X(H4N2)]
 Deg. of freedom    12
 Full point group                 C1      NOp   1
 RotChk:  IX=2 Diff= 9.26D-03
 Largest Abelian subgroup         C1      NOp   1
 Largest concise Abelian subgroup C1      NOp   1
                         Standard orientation:                         
 ---------------------------------------------------------------------
 Center     Atomic      Atomic             Coordinates (Angstroms)
 Number     Number       Type             X           Y           Z
 ---------------------------------------------------------------------
      1          7           0        0.726691   -0.011151    0.156902
      2          7           0       -0.726324   -0.010679   -0.155504
      3          1           0        1.099688   -0.753129   -0.434579
      4          1           0        1.077519    0.830926   -0.298259
      5          1           0       -1.079160    0.832567    0.294889
      6          1           0       -1.100615   -0.757551    0.428162
 ---------------------------------------------------------------------
 Rotational constants (GHZ):    138.5319311     24.2957049     22.7165252
 Leave Link  202 at Sat Feb 16 14:00:33 2019, MaxMem=   196608000 cpu:         0.5
 (Enter /cm/shared/c3ddb/gaussian/09.d01/g09/l301.exe)
 Standard basis: 6-311G(2d,d,p) (5D, 7F)
 Ernie: Thresh=  0.10000D-02 Tol=  0.10000D-05 Strict=F.
 There are    62 symmetry adapted cartesian basis functions of A   symmetry.
 There are    60 symmetry adapted basis functions of A   symmetry.
    60 basis functions,    96 primitive gaussians,    62 cartesian basis functions
     9 alpha electrons        9 beta electrons
       nuclear repulsion energy        40.9171759459 Hartrees.
 IExCor=  402 DFT=T Ex+Corr=B3LYP ExCW=0 ScaHFX=  0.200000
 ScaDFX=  0.800000  0.720000  1.000000  0.810000 ScalE2=  1.000000  1.000000
 IRadAn=      0 IRanWt=     -1 IRanGd=            0 ICorTp=0 IEmpDi=  4
 NAtoms=    6 NActive=    6 NUniq=    6 SFac= 1.00D+00 NAtFMM=   60 NAOKFM=F Big=F
 Integral buffers will be    131072 words long.
 Raffenetti 2 integral format.
 Two-electron integral symmetry is turned on.
 Leave Link  301 at Sat Feb 16 14:00:33 2019, MaxMem=   196608000 cpu:         0.3
 (Enter /cm/shared/c3ddb/gaussian/09.d01/g09/l302.exe)
 NPDir=0 NMtPBC=     1 NCelOv=     1 NCel=       1 NClECP=     1 NCelD=      1
         NCelK=      1 NCelE2=     1 NClLst=     1 CellRange=     0.0.
 One-electron integrals computed using PRISM.
 NBasis=    60 RedAO= T EigKep=  5.12D-03  NBF=    60
 NBsUse=    60 1.00D-06 EigRej= -1.00D+00 NBFU=    60
 Precomputing XC quadrature grid using
 IXCGrd= 4 IRadAn=           0 IRanWt=          -1 IRanGd=           0 AccXCQ= 0.00D+00.
 Generated NRdTot=       0 NPtTot=           0 NUsed=           0 NTot=          32
 NSgBfM=    62    62    62    62    62 MxSgAt=     6 MxSgA2=     6.
 Leave Link  302 at Sat Feb 16 14:00:34 2019, MaxMem=   196608000 cpu:         4.2
 (Enter /cm/shared/c3ddb/gaussian/09.d01/g09/l303.exe)
 DipDrv:  MaxL=1.
 Leave Link  303 at Sat Feb 16 14:00:35 2019, MaxMem=   196608000 cpu:         1.1
 (Enter /cm/shared/c3ddb/gaussian/09.d01/g09/l401.exe)
 Initial guess from the checkpoint file:  "check.chk"
 B after Tr=     0.000000    0.000000    0.000000
         Rot=    0.999996    0.002759    0.000122   -0.000096 Ang=   0.32 deg.
 Guess basis will be translated and rotated to current coordinates.
 JPrj=2 DoOrth=T DoCkMO=T.
 Generating alternative initial guess.
 ExpMin= 1.03D-01 ExpMax= 6.29D+03 ExpMxC= 9.49D+02 IAcc=1 IRadAn=         1 AccDes= 0.00D+00
 Harris functional with IExCor=  402 and IRadAn=       1 diagonalized for initial guess.
 HarFok:  IExCor=  402 AccDes= 0.00D+00 IRadAn=         1 IDoV= 1 UseB2=F ITyADJ=14
 ICtDFT=  3500011 ScaDFX=  1.000000  1.000000  1.000000  1.000000
 FoFCou: FMM=F IPFlag=           0 FMFlag=      100000 FMFlg1=           0
         NFxFlg=           0 DoJE=T BraDBF=F KetDBF=T FulRan=T
         wScrn=  0.000000 ICntrl=     500 IOpCl=  0 I1Cent=   200000004 NGrid=           0
         NMat0=    1 NMatS0=      1 NMatT0=    0 NMatD0=    1 NMtDS0=    0 NMtDT0=    0
 Petite list used in FoFCou.
 Harris En= -111.910293579222    
 Leave Link  401 at Sat Feb 16 14:00:36 2019, MaxMem=   196608000 cpu:         8.1
 (Enter /cm/shared/c3ddb/gaussian/09.d01/g09/l502.exe)
 Closed shell SCF:
 Using DIIS extrapolation, IDIIS=  1040.
 Integral symmetry usage will be decided dynamically.
 Keep R1 ints in memory in canonical form, NReq=2575347.
 IVT=       18440 IEndB=       18440 NGot=   196608000 MDV=   194914196
 LenX=   194914196 LenY=   194909911
 Requested convergence on RMS density matrix=1.00D-08 within  64 cycles.
 Requested convergence on MAX density matrix=1.00D-06.
 Requested convergence on             energy=1.00D-06.
 No special actions if energy rises.
 FoFCou: FMM=F IPFlag=           0 FMFlag=           0 FMFlg1=           0
         NFxFlg=           0 DoJE=F BraDBF=F KetDBF=F FulRan=T
         wScrn=  0.000000 ICntrl=     600 IOpCl=  0 I1Cent=           0 NGrid=           0
         NMat0=    1 NMatS0=   1830 NMatT0=    0 NMatD0=    1 NMtDS0=    0 NMtDT0=    0
 Symmetry not used in FoFCou.
 Integral accuracy reduced to 1.0D-05 until final iterations.

 Cycle   1  Pass 0  IDiag  1:
 E= -111.896043305113    
 DIIS: error= 3.07D-03 at cycle   1 NSaved=   1.
 NSaved= 1 IEnMin= 1 EnMin= -111.896043305113     IErMin= 1 ErrMin= 3.07D-03
 ErrMax= 3.07D-03  0.00D+00 EMaxC= 1.00D-01 BMatC= 1.18D-03 BMatP= 1.18D-03
 IDIUse=3 WtCom= 9.69D-01 WtEn= 3.07D-02
 Coeff-Com:  0.100D+01
 Coeff-En:   0.100D+01
 Coeff:      0.100D+01
 Gap=     0.532 Goal=   None    Shift=    0.000
 GapD=    0.532 DampG=2.000 DampE=1.000 DampFc=2.0000 IDamp=-1.
 RMSDP=8.56D-04 MaxDP=1.15D-02              OVMax= 1.84D-02

 Cycle   2  Pass 0  IDiag  1:
 E= -111.897601417083     Delta-E=       -0.001558111970 Rises=F Damp=F
 DIIS: error= 3.69D-04 at cycle   2 NSaved=   2.
 NSaved= 2 IEnMin= 2 EnMin= -111.897601417083     IErMin= 2 ErrMin= 3.69D-04
 ErrMax= 3.69D-04  0.00D+00 EMaxC= 1.00D-01 BMatC= 1.30D-05 BMatP= 1.18D-03
 IDIUse=3 WtCom= 9.96D-01 WtEn= 3.69D-03
 Coeff-Com: -0.481D-01 0.105D+01
 Coeff-En:   0.000D+00 0.100D+01
 Coeff:     -0.479D-01 0.105D+01
 Gap=     0.245 Goal=   None    Shift=    0.000
 RMSDP=1.29D-04 MaxDP=1.48D-03 DE=-1.56D-03 OVMax= 2.04D-03

 Cycle   3  Pass 0  IDiag  1:
 E= -111.897615010503     Delta-E=       -0.000013593420 Rises=F Damp=F
 DIIS: error= 3.59D-04 at cycle   3 NSaved=   3.
 NSaved= 3 IEnMin= 3 EnMin= -111.897615010503     IErMin= 3 ErrMin= 3.59D-04
 ErrMax= 3.59D-04  0.00D+00 EMaxC= 1.00D-01 BMatC= 5.68D-06 BMatP= 1.30D-05
 IDIUse=3 WtCom= 9.96D-01 WtEn= 3.59D-03
 Coeff-Com: -0.253D-01 0.434D+00 0.592D+00
 Coeff-En:   0.000D+00 0.000D+00 0.100D+01
 Coeff:     -0.252D-01 0.432D+00 0.593D+00
 Gap=     0.244 Goal=   None    Shift=    0.000
 RMSDP=3.26D-05 MaxDP=3.60D-04 DE=-1.36D-05 OVMax= 8.44D-04

 Cycle   4  Pass 0  IDiag  1:
 E= -111.897618565648     Delta-E=       -0.000003555145 Rises=F Damp=F
 DIIS: error= 1.98D-04 at cycle   4 NSaved=   4.
 NSaved= 4 IEnMin= 4 EnMin= -111.897618565648     IErMin= 4 ErrMin= 1.98D-04
 ErrMax= 1.98D-04  0.00D+00 EMaxC= 1.00D-01 BMatC= 1.28D-06 BMatP= 5.68D-06
 IDIUse=3 WtCom= 9.98D-01 WtEn= 1.98D-03
 Coeff-Com: -0.842D-02 0.123D+00 0.342D+00 0.544D+00
 Coeff-En:   0.000D+00 0.000D+00 0.154D+00 0.846D+00
 Coeff:     -0.840D-02 0.122D+00 0.342D+00 0.544D+00
 Gap=     0.244 Goal=   None    Shift=    0.000
 RMSDP=1.21D-05 MaxDP=1.53D-04 DE=-3.56D-06 OVMax= 3.57D-04

 Cycle   5  Pass 0  IDiag  1:
 E= -111.897619554518     Delta-E=       -0.000000988870 Rises=F Damp=F
 DIIS: error= 2.83D-05 at cycle   5 NSaved=   5.
 NSaved= 5 IEnMin= 5 EnMin= -111.897619554518     IErMin= 5 ErrMin= 2.83D-05
 ErrMax= 2.83D-05  0.00D+00 EMaxC= 1.00D-01 BMatC= 3.40D-08 BMatP= 1.28D-06
 IDIUse=1 WtCom= 1.00D+00 WtEn= 0.00D+00
 Coeff-Com:  0.391D-03-0.167D-01 0.415D-01 0.181D+00 0.793D+00
 Coeff:      0.391D-03-0.167D-01 0.415D-01 0.181D+00 0.793D+00
 Gap=     0.244 Goal=   None    Shift=    0.000
 RMSDP=3.14D-06 MaxDP=3.70D-05 DE=-9.89D-07 OVMax= 5.71D-05

 Initial convergence to 1.0D-05 achieved.  Increase integral accuracy.
 Cycle   6  Pass 1  IDiag  1:
 E= -111.897622756512     Delta-E=       -0.000003201994 Rises=F Damp=F
 DIIS: error= 4.25D-06 at cycle   1 NSaved=   1.
 NSaved= 1 IEnMin= 1 EnMin= -111.897622756512     IErMin= 1 ErrMin= 4.25D-06
 ErrMax= 4.25D-06  0.00D+00 EMaxC= 1.00D-01 BMatC= 9.63D-10 BMatP= 9.63D-10
 IDIUse=1 WtCom= 1.00D+00 WtEn= 0.00D+00
 Coeff-Com:  0.100D+01
 Coeff:      0.100D+01
 Gap=     0.244 Goal=   None    Shift=    0.000
 RMSDP=3.14D-06 MaxDP=3.70D-05 DE=-3.20D-06 OVMax= 2.05D-05

 Cycle   7  Pass 1  IDiag  1:
 E= -111.897622757583     Delta-E=       -0.000000001070 Rises=F Damp=F
 DIIS: error= 1.01D-06 at cycle   2 NSaved=   2.
 NSaved= 2 IEnMin= 2 EnMin= -111.897622757583     IErMin= 2 ErrMin= 1.01D-06
 ErrMax= 1.01D-06  0.00D+00 EMaxC= 1.00D-01 BMatC= 7.53D-11 BMatP= 9.63D-10
 IDIUse=1 WtCom= 1.00D+00 WtEn= 0.00D+00
 Coeff-Com:  0.111D+00 0.889D+00
 Coeff:      0.111D+00 0.889D+00
 Gap=     0.244 Goal=   None    Shift=    0.000
 RMSDP=2.52D-07 MaxDP=2.74D-06 DE=-1.07D-09 OVMax= 5.04D-06

 Cycle   8  Pass 1  IDiag  1:
 E= -111.897622757602     Delta-E=       -0.000000000020 Rises=F Damp=F
 DIIS: error= 1.21D-06 at cycle   3 NSaved=   3.
 NSaved= 3 IEnMin= 3 EnMin= -111.897622757602     IErMin= 2 ErrMin= 1.01D-06
 ErrMax= 1.21D-06  0.00D+00 EMaxC= 1.00D-01 BMatC= 6.61D-11 BMatP= 7.53D-11
 IDIUse=1 WtCom= 1.00D+00 WtEn= 0.00D+00
 Coeff-Com:  0.304D-02 0.482D+00 0.515D+00
 Coeff:      0.304D-02 0.482D+00 0.515D+00
 Gap=     0.244 Goal=   None    Shift=    0.000
 RMSDP=8.74D-08 MaxDP=1.68D-06 DE=-1.97D-11 OVMax= 1.90D-06

 Cycle   9  Pass 1  IDiag  1:
 E= -111.897622757655     Delta-E=       -0.000000000053 Rises=F Damp=F
 DIIS: error= 1.85D-07 at cycle   4 NSaved=   4.
 NSaved= 4 IEnMin= 4 EnMin= -111.897622757655     IErMin= 4 ErrMin= 1.85D-07
 ErrMax= 1.85D-07  0.00D+00 EMaxC= 1.00D-01 BMatC= 2.01D-12 BMatP= 6.61D-11
 IDIUse=1 WtCom= 1.00D+00 WtEn= 0.00D+00
 Coeff-Com: -0.782D-02 0.154D+00 0.217D+00 0.636D+00
 Coeff:     -0.782D-02 0.154D+00 0.217D+00 0.636D+00
 Gap=     0.244 Goal=   None    Shift=    0.000
 RMSDP=2.13D-08 MaxDP=2.26D-07 DE=-5.29D-11 OVMax= 4.24D-07

 Cycle  10  Pass 1  IDiag  1:
 E= -111.897622757657     Delta-E=       -0.000000000002 Rises=F Damp=F
 DIIS: error= 7.34D-08 at cycle   5 NSaved=   5.
 NSaved= 5 IEnMin= 5 EnMin= -111.897622757657     IErMin= 5 ErrMin= 7.34D-08
 ErrMax= 7.34D-08  0.00D+00 EMaxC= 1.00D-01 BMatC= 2.11D-13 BMatP= 2.01D-12
 IDIUse=1 WtCom= 1.00D+00 WtEn= 0.00D+00
 Coeff-Com: -0.399D-02 0.498D-01 0.761D-01 0.320D+00 0.558D+00
 Coeff:     -0.399D-02 0.498D-01 0.761D-01 0.320D+00 0.558D+00
 Gap=     0.244 Goal=   None    Shift=    0.000
 RMSDP=6.65D-09 MaxDP=8.13D-08 DE=-1.53D-12 OVMax= 1.67D-07

 SCF Done:  E(RB3LYP) =  -111.897622758     A.U. after   10 cycles
            NFock= 10  Conv=0.66D-08     -V/T= 2.0030
 KE= 1.115584335556D+02 PE=-3.438191008619D+02 EE= 7.944586860272D+01
 Leave Link  502 at Sat Feb 16 14:00:41 2019, MaxMem=   196608000 cpu:        28.1
 (Enter /cm/shared/c3ddb/gaussian/09.d01/g09/l508.exe)
 QCSCF skips out because SCF is already converged.
 Leave Link  508 at Sat Feb 16 14:00:41 2019, MaxMem=   196608000 cpu:         0.0
[...]
 --------------------------------------------------------------------------------
 ! R1    R(1,2)                  1.4868         -DE/DX =    0.0                 !
 ! R2    R(1,3)                  1.0195         -DE/DX =    0.0                 !
 ! R3    R(1,4)                  1.0195         -DE/DX =    0.0                 !
 ! R4    R(2,5)                  1.0194         -DE/DX =    0.0                 !
 ! R5    R(2,6)                  1.0194         -DE/DX =    0.0                 !
 ! A1    A(2,1,3)              103.759          -DE/DX =    0.0                 !
 ! A2    A(2,1,4)              103.792          -DE/DX =   -0.0001              !
 ! A3    A(3,1,4)              102.5167         -DE/DX =    0.0                 !
 ! A4    A(1,2,5)              103.7574         -DE/DX =    0.0001              !
 ! A5    A(1,2,6)              103.794          -DE/DX =   -0.0001              !
 ! A6    A(5,2,6)              102.5419         -DE/DX =    0.0                 !
 ! D1    D(3,1,2,5)           -179.8787         -DE/DX =    0.0                 !
 ! D2    D(3,1,2,6)             73.2444         -DE/DX =    0.0                 !
 ! D3    D(4,1,2,5)            -73.0292         -DE/DX =    0.0                 !
 ! D4    D(4,1,2,6)           -179.906          -DE/DX =    0.0                 !
 --------------------------------------------------------------------------------
 Lowest energy point so far.  Saving SCF results.
 GradGradGradGradGradGradGradGradGradGradGradGradGradGradGradGradGradGrad

 Summary of Optimized Potential Surface Scan
                           1         2         3         4         5
     Eigenvalues --  -111.89764-111.89763-111.89762-111.89772-111.89803
           R1           1.48695   1.48635   1.48436   1.48042   1.47425
           R2           1.01944   1.01935   1.01886   1.01800   1.01683
           R3           1.01944   1.01925   1.01865   1.01763   1.01641
           R4           1.01944   1.01922   1.01869   1.01797   1.01726
           R5           1.01944   1.01932   1.01890   1.01834   1.01770
           A1         103.76880 103.66234 103.76518 104.09321 104.62507
           A2         103.77405 104.09502 104.74062 105.80132 107.20246
           A3         102.53137 102.60109 102.92389 103.63985 104.67997
           A4         103.77405 104.10541 104.72784 105.66060 106.82052
           A5         103.76880 103.66403 103.74298 103.96381 104.30964
           A6         102.53137 102.62403 102.86415 103.18836 103.56775
           D1        -179.87892-169.87870-159.87898-149.87897-139.87894
           D2          73.25836  83.08366  92.58673 101.82815 110.84989
           D3         -73.01621 -62.86993 -52.26746 -40.99015 -29.08797
           D4        -179.87892-169.90757-159.80176-149.28303-138.35913
                           6         7         8         9        10
     Eigenvalues --  -111.89865-111.89955-111.90053-111.90126-111.90153
           R1           1.46503   1.45485   1.44512   1.43850   1.43531
           R2           1.01543   1.01420   1.01333   1.01315   1.01340
           R3           1.01526   1.01477   1.01506   1.01628   1.01800
           R4           1.01674   1.01672   1.01699   1.01743   1.01787
           R5           1.01702   1.01626   1.01536   1.01430   1.01329
           A1         105.43358 106.25613 107.02681 107.40591 107.40342
           A2         108.90947 110.46549 111.66883 112.16034 112.13508
           A3         106.05714 107.24093 108.05526 108.12110 107.59155
           A4         108.17899 109.47278 110.64830 111.53554 112.13951
           A5         104.86243 105.49472 106.23485 106.89727 107.39093
           A6         104.11587 104.75527 105.67087 106.64083 107.60977
           D1        -129.87895-119.87893-109.87879 -99.87898 -89.87893
           D2         119.46695 127.88930 135.89301 143.91307 152.10680
           D3         -16.43289  -3.88006   8.18572  18.78235  28.11839
           D4        -127.08699-116.11183-106.04248 -97.42561 -89.89588
                          11        12        13        14        15
     Eigenvalues --  -111.90120-111.90022-111.89861-111.89647-111.89397
           R1           1.43464   1.43629   1.43992   1.44537   1.45250
           R2           1.01391   1.01459   1.01535   1.01616   1.01694
           R3           1.01995   1.02191   1.02366   1.02496   1.02559
           R4           1.01820   1.01830   1.01827   1.01804   1.01774
           R5           1.01234   1.01160   1.01113   1.01095   1.01114
           A1         107.17517 106.81857 106.44968 106.12077 105.91555
           A2         111.82020 111.30948 110.69642 110.03280 109.37281
           A3         106.74579 105.70477 104.60342 103.52631 102.60659
           A4         112.56496 112.76828 112.78649 112.61307 112.20904
           A5         107.78621 108.08591 108.31166 108.46528 108.52005
           A6         108.49175 109.23510 109.76919 110.05125 109.93524
           D1         -79.87872 -69.87872 -59.87874 -49.87879 -39.87874
           D2         160.51692 169.26247 178.42226-171.92894-161.55779
           D3          36.77494  45.04658  53.23581  61.49983  70.04945
           D4         -82.82942 -75.81223 -68.46319 -60.55032 -51.62959
                          16        17        18        19        20
     Eigenvalues --  -111.89136-111.88898-111.88726-111.88663-111.88729
           R1           1.46053   1.46912   1.47635   1.47919   1.47622
           R2           1.01760   1.01808   1.01826   1.01800   1.01759
           R3           1.02512   1.02370   1.02116   1.01800   1.01506
           R4           1.01750   1.01739   1.01761   1.01799   1.01825
           R5           1.01180   1.01302   1.01510   1.01804   1.02120
           A1         105.95827 106.28225 106.99134 108.12267 109.47246
           A2         108.78140 108.31614 108.08153 108.12772 108.29509
           A3         101.98706 101.95031 102.74095 104.44230 106.53013
           A4         111.61408 110.68754 109.46261 108.10846 106.97634
           A5         108.56630 108.47365 108.30153 108.13796 108.08541
           A6         109.43620 108.28406 106.49879 104.41971 102.72944
           D1         -29.87895 -19.87894  -9.87903   0.12105  10.12123
           D2        -150.58645-138.54657-125.60930-112.38767 -99.88089
           D3          79.11139  89.02099 100.14139 112.65794 125.89052
           D4         -41.59610 -29.64665 -15.58888   0.14922  15.88840
                          21        22        23        24        25
     Eigenvalues --  -111.88903-111.89143-111.89404-111.89653-111.89866
           R1           1.46921   1.46046   1.45224   1.44512   1.43980
           R2           1.01744   1.01753   1.01785   1.01816   1.01839
           R3           1.01303   1.01192   1.01123   1.01105   1.01127
           R4           1.01812   1.01761   1.01688   1.01609   1.01530
           R5           1.02372   1.02514   1.02541   1.02478   1.02347
           A1         110.67319 111.56041 112.23381 112.62439 112.78850
           A2         108.43060 108.59729 108.55305 108.49176 108.32310
           A3         108.26888 109.39266 109.96277 110.06609 109.77024
           A4         106.26689 105.94594 105.93314 106.13318 106.45654
           A5         108.27975 108.79161 109.40139 110.06031 110.71070
           A6         101.90607 102.01624 102.60693 103.53417 104.59886
           D1          20.12099  30.12101  40.12126  50.12107  60.12102
           D2         -88.70650 -78.90113 -69.82805 -61.28539 -52.99875
           D3         138.73535 150.76119 161.87366 172.21600-178.16937
           D4          29.90786  41.73906  51.92435  60.80954  68.71086
                          26        27        28        29        30
     Eigenvalues --  -111.90025-111.90122-111.90153-111.90125-111.90050
           R1           1.43617   1.43458   1.43516   1.43865   1.44532
           R2           1.01840   1.01823   1.01790   1.01747   1.01704
           R3           1.01175   1.01248   1.01343   1.01448   1.01555
           R4           1.01454   1.01386   1.01330   1.01303   1.01325
           R5           1.02171   1.01974   1.01775   1.01601   1.01482
           A1         112.78173 112.56949 112.17673 111.54070 110.64620
           A2         108.10288 107.79161 107.39118 106.85971 106.22141
           A3         109.23577 108.48972 107.61932 106.64931 105.67192
           A4         106.83515 107.16657 107.39118 107.35419 106.98250
           A5         111.32608 111.83168 112.15517 112.15178 111.63500
           A6         105.70450 106.73482 107.58423 108.06754 108.00105
           D1          70.12106  80.12105  90.12126 100.12124 110.12125
           D2         -44.82193 -36.52045 -27.87092 -18.43670  -7.83157
           D3        -168.99918-160.27081-151.83138-143.68001-135.65766
           D4          76.05783  83.08769  90.17644  97.76204 106.38951
                          31        32        33        34        35
     Eigenvalues --  -111.89953-111.89863-111.89802-111.89771-111.89762
           R1           1.45479   1.46534   1.47469   1.48074   1.48452
           R2           1.01670   1.01676   1.01732   1.01800   1.01870
           R3           1.01629   1.01702   1.01775   1.01837   1.01890
           R4           1.01417   1.01545   1.01684   1.01803   1.01888
           R5           1.01470   1.01527   1.01640   1.01765   1.01867
           A1         109.48615 108.15056 106.77616 105.61700 104.70128
           A2         105.52250 104.85610 104.29121 103.96100 103.75615
           A3         104.78250 104.10335 103.53433 103.17191 102.85939
           A4         106.30664 105.42665 104.57867 104.06507 103.74906
           A5         110.50992 108.88381 107.14534 105.75032 104.72256
           A6         107.30994 106.03716 104.62823 103.58801 102.90277
           D1         120.12103 130.12102 140.12127 150.12127 160.12131
           D2           3.98979  16.71285  29.43068  41.31872  52.54463
           D3        -127.59616-119.25344-110.66884-101.62040 -92.35394
           D4         116.27260 127.33839 138.64058 149.57705 160.06938
                          36        37
     Eigenvalues --  -111.89763-111.89764
           R1           1.48641   1.48683
           R2           1.01923   1.01947
           R3           1.01933   1.01949
           R4           1.01935   1.01943
           R5           1.01925   1.01942
           A1         104.08145 103.75896
           A2         103.69793 103.79203
           A3         102.63088 102.51672
           A4         103.64944 103.75737
           A5         104.09094 103.79399
           A6         102.57942 102.54186
           D1         170.12123-179.87873
           D2          63.14162  73.24440
           D3         -82.83024 -73.02917
           D4         170.19014-179.90604
 Largest change from initial coordinates is atom    4       2.185 Angstoms.
 Leave Link  103 at Sat Feb 16 14:26:16 2019, MaxMem=   196608000 cpu:         8.5
 (Enter /cm/shared/c3ddb/gaussian/09.d01/g09/l202.exe)
                          Input orientation:                          
 ---------------------------------------------------------------------
 Center     Atomic      Atomic             Coordinates (Angstroms)
 Number     Number       Type             X           Y           Z
 ---------------------------------------------------------------------
      1          7           0       -0.722913    0.011965    0.172957
      2          7           0        0.722961   -0.011212   -0.172837
      3          1           0       -1.089266    0.794051   -0.368748
      4          1           0       -1.103564   -0.795462   -0.319515
      5          1           0        1.088871   -0.794566    0.367258
      6          1           0        1.103913    0.795221    0.320884
 ---------------------------------------------------------------------
                    Distance matrix (angstroms):
                    1          2          3          4          5
     1  N    0.000000
     2  N    1.486830   0.000000
     3  H    1.019469   1.992736   0.000000
     4  H    1.019491   1.993178   1.590339   0.000000
     5  H    1.992688   1.019430   2.794582   2.297484   0.000000
     6  H    1.993154   1.019421   2.299049   2.795235   1.590534
                    6
     6  H    0.000000
 Stoichiometry    H4N2
 Framework group  C1[X(H4N2)]
 Deg. of freedom    12
 Full point group                 C1      NOp   1
 RotChk:  IX=2 Diff= 6.63D-16
 Largest Abelian subgroup         C1      NOp   1
 Largest concise Abelian subgroup C1      NOp   1
                         Standard orientation:                         
 ---------------------------------------------------------------------
 Center     Atomic      Atomic             Coordinates (Angstroms)
 Number     Number       Type             X           Y           Z
 ---------------------------------------------------------------------
      1          7           0        0.726550   -0.000135    0.157447
      2          7           0       -0.726562   -0.000115   -0.157399
      3          1           0        1.088569   -0.794957   -0.368403
      4          1           0        1.088911    0.795382   -0.367156
      5          1           0       -1.088185    0.795929    0.366795
      6          1           0       -1.089207   -0.794603    0.368430
 ---------------------------------------------------------------------
 Rotational constants (GHZ):    138.4027867     24.2954393     22.7152492
 Leave Link  202 at Sat Feb 16 14:26:17 2019, MaxMem=   196608000 cpu:         0.5
 (Enter /cm/shared/c3ddb/gaussian/09.d01/g09/l601.exe)
 Copying SCF densities to generalized density rwf, IOpCl= 0 IROHF=0.

 **********************************************************************

            Population analysis using the SCF density.

 **********************************************************************

 Orbital symmetries:
       Occupied  (A) (A) (A) (A) (A) (A) (A) (A) (A)
       Virtual   (A) (A) (A) (A) (A) (A) (A) (A) (A) (A) (A) (A)
                 (A) (A) (A) (A) (A) (A) (A) (A) (A) (A) (A) (A)
                 (A) (A) (A) (A) (A) (A) (A) (A) (A) (A) (A) (A)
                 (A) (A) (A) (A) (A) (A) (A) (A) (A) (A) (A) (A)
                 (A) (A) (A)
 The electronic state is 1-A.
 Alpha  occ. eigenvalues --  -14.31090 -14.31081  -0.93733  -0.75387  -0.51390
 Alpha  occ. eigenvalues --   -0.43826  -0.40637  -0.35133  -0.20518
 Alpha virt. eigenvalues --    0.03958   0.06240   0.09534   0.13132   0.18047
 Alpha virt. eigenvalues --    0.35577   0.37547   0.42385   0.46022   0.58336
 Alpha virt. eigenvalues --    0.59045   0.67482   0.69331   0.73822   0.74439
 Alpha virt. eigenvalues --    0.94707   1.04818   1.14460   1.19130   1.34817
 Alpha virt. eigenvalues --    1.37764   1.63617   1.63749   1.68996   1.69323
 Alpha virt. eigenvalues --    1.74662   1.83123   1.86696   1.92659   2.17291
 Alpha virt. eigenvalues --    2.27172   2.34765   2.36690   2.53422   2.56943
 Alpha virt. eigenvalues --    2.61848   2.68485   2.69001   2.77265   2.82747
 Alpha virt. eigenvalues --    3.00456   3.04675   3.12925   3.62804   3.92056
 Alpha virt. eigenvalues --    4.25222   4.56549   4.73604   4.97199  35.47861
 Alpha virt. eigenvalues --   35.48284
          Condensed to atoms (all electrons):
               1          2          3          4          5          6
     1  N    6.544089   0.218719   0.361890   0.361893  -0.042106  -0.042125
     2  N    0.218719   6.544009  -0.042164  -0.042069   0.361958   0.361920
     3  H    0.361890  -0.042164   0.522875  -0.043351   0.008895  -0.009327
     4  H    0.361893  -0.042069  -0.043351   0.522885  -0.009398   0.008884
     5  H   -0.042106   0.361958   0.008895  -0.009398   0.522833  -0.043335
     6  H   -0.042125   0.361920  -0.009327   0.008884  -0.043335   0.522740
 Mulliken charges:
               1
     1  N   -0.402360
     2  N   -0.402373
     3  H    0.201181
     4  H    0.201156
     5  H    0.201153
     6  H    0.201243
 Sum of Mulliken charges =   0.00000
 Mulliken charges with hydrogens summed into heavy atoms:
               1
     1  N   -0.000023
     2  N    0.000023
 Electronic spatial extent (au):  <R**2>=             84.0449
 Charge=              0.0000 electrons
 Dipole moment (field-independent basis, Debye):
    X=             -0.0001    Y=              0.0031    Z=             -0.0004  Tot=              0.0031
 Quadrupole moment (field-independent basis, Debye-Ang):
   XX=            -12.2368   YY=            -10.6630   ZZ=            -15.4592
   XY=              0.0009   XZ=             -3.9345   YZ=              0.0000
 Traceless Quadrupole moment (field-independent basis, Debye-Ang):
   XX=              0.5495   YY=              2.1234   ZZ=             -2.6729
   XY=              0.0009   XZ=             -3.9345   YZ=              0.0000
 Octapole moment (field-independent basis, Debye-Ang**2):
  XXX=             -0.0003  YYY=              0.0060  ZZZ=             -0.0004  XYY=             -0.0010
  XXY=              0.0029  XXZ=             -0.0008  XZZ=              0.0003  YZZ=             -0.0008
  YYZ=              0.0000  XYZ=              0.0042
 Hexadecapole moment (field-independent basis, Debye-Ang**3):
 XXXX=            -61.5814 YYYY=            -17.9556 ZZZZ=            -19.0971 XXXY=              0.0056
 XXXZ=             -6.1337 YYYX=             -0.0006 YYYZ=              0.0008 ZZZX=             -3.5822
 ZZZY=             -0.0002 XXYY=            -10.9299 XXZZ=            -15.1291 YYZZ=             -5.8882
 XXYZ=             -0.0015 YYXZ=             -2.3519 ZZXY=              0.0006
 N-N= 4.091316552436D+01 E-N=-3.438101009504D+02  KE= 1.115591264165D+02
 No NMR shielding tensors so no spin-rotation constants.
 Leave Link  601 at Sat Feb 16 14:26:17 2019, MaxMem=   196608000 cpu:         3.2
 (Enter /cm/shared/c3ddb/gaussian/09.d01/g09/l9999.exe)
 1\1\GINC-NODE028\Scan\RB3LYP\6-311G(2d,d,p)\H4N2\DUMINDA\16-Feb-2019\0
 \\#P opt=(modredundant, calcfc, noeigentest) b3lyp/cbsb7 scf=xqc\\name
 \\0,1\N,-0.722913049,0.0119654686,0.1729566615\N,0.7229608882,-0.01121
 15679,-0.1728371331\H,-1.0892662392,0.794051155,-0.3687479278\H,-1.103
 5644344,-0.7954617683,-0.3195149375\H,1.0888710487,-0.7945655477,0.367
 2581836\H,1.1039128455,0.7952209188,0.3208843636\\Version=AS64L-G09Rev
 D.01\State=1-A\HF=-111.8976385,-111.8976281,-111.8976225,-111.8977151,
 -111.8980277,-111.8986506,-111.8995538,-111.9005257,-111.9012636,-111.
 9015328,-111.9012005,-111.9002177,-111.8986106,-111.8964732,-111.89397
 43,-111.8913631,-111.8889782,-111.8872568,-111.8866273,-111.8872871,-1
 11.8890297,-111.8914251,-111.8940374,-111.8965302,-111.8986564,-111.90
 02492,-111.9012163,-111.9015329,-111.9012505,-111.9005036,-111.8995304
 ,-111.8986318,-111.8980164,-111.8977107,-111.8976219,-111.8976286,-111
 .8976418\RMSD=9.444e-09,2.835e-09,4.885e-09,5.025e-09,6.861e-09,5.861e
 -09,4.803e-09,6.240e-09,3.070e-09,2.832e-09,3.473e-09,5.289e-09,7.632e
 -09,7.234e-09,2.675e-09,3.662e-09,6.973e-09,9.389e-09,9.157e-09,3.938e
 -09,6.925e-09,2.690e-09,4.541e-09,8.250e-09,9.616e-09,8.438e-09,2.793e
 -09,9.154e-09,6.623e-09,3.836e-09,5.135e-09,5.923e-09,1.401e-09,5.436e
 -09,3.880e-09,2.490e-09,8.784e-09\PG=C01 [X(H4N2)]\\@


 THERE IS AN OLD, OLD RECIPE IN MAINE FOR STEWING COOT. PLACE THE
 BIRD IN A KETTLE OF WATER WITH A RED BUILDING BRICK FREE OF MORTAR AND
 BLEMISHES. PARBOIL THE COOT AND BRICK TOGETHER FOR THREE HOURS.
 POUR OFF THE WATER, REFILL THE KETTLE, AND AGAIN PARBOIL FOR THREE HOURS.
 ONCE AGAIN POUR OFF THE WATER, FOR THE LAST TIME ADD FRESH WATER,
 AND LET THE COOT AND BRICK SIMMER TOGETHER OVERNIGHT. IN THE MORNING,
 THROW AWAY THE COOT AND EAT THE BRICK.
 Job cpu time:       0 days  2 hours 40 minutes  3.5 seconds.
 File lengths (MBytes):  RWF=      6 Int=      0 D2E=      0 Chk=      3 Scr=      1
 Normal termination of Gaussian 09 at Sat Feb 16 14:26:17 2019.
