 Entering Gaussian System, Link 0=g09
 Initial command:
 /cm/shared/c3ddb/gaussian/09.d01/g09/l1.exe "/scratch/users/duminda/g09/a1655-7322536/Gau-32696.inp" -scrdir="/scratch/users/duminda/g09/a1655-7322536/"
 Entering Link 1 = /cm/shared/c3ddb/gaussian/09.d01/g09/l1.exe PID=     32697.
  
 Copyright (c) 1988,1990,1992,1993,1995,1998,2003,2009,2013,
            Gaussian, Inc.  All Rights Reserved.
  
 This is part of the Gaussian(R) 09 program.  It is based on
 the Gaussian(R) 03 system (copyright 2003, Gaussian, Inc.),
 the Gaussian(R) 98 system (copyright 1998, Gaussian, Inc.),
 the Gaussian(R) 94 system (copyright 1995, Gaussian, Inc.),
 the Gaussian 92(TM) system (copyright 1992, Gaussian, Inc.),
 the Gaussian 90(TM) system (copyright 1990, Gaussian, Inc.),
 the Gaussian 88(TM) system (copyright 1988, Gaussian, Inc.),
 the Gaussian 86(TM) system (copyright 1986, Carnegie Mellon
 University), and the Gaussian 82(TM) system (copyright 1983,
 Carnegie Mellon University). Gaussian is a federally registered
 trademark of Gaussian, Inc.
  
 This software contains proprietary and confidential information,
 including trade secrets, belonging to Gaussian, Inc.
  
 This software is provided under written license and may be
 used, copied, transmitted, or stored only in accord with that
 written license.
  
 The following legend is applicable only to US Government
 contracts under FAR:
  
                    RESTRICTED RIGHTS LEGEND
  
 Use, reproduction and disclosure by the US Government is
 subject to restrictions as set forth in subparagraphs (a)
 and (c) of the Commercial Computer Software - Restricted
 Rights clause in FAR 52.227-19.
  
 Gaussian, Inc.
 340 Quinnipiac St., Bldg. 40, Wallingford CT 06492
  
  
 ---------------------------------------------------------------
 Warning -- This program may not be used in any manner that
 competes with the business of Gaussian, Inc. or will provide
 assistance to any competitor of Gaussian, Inc.  The licensee
 of this program is prohibited from giving any competitor of
 Gaussian, Inc. access to this program.  By using this program,
 the user acknowledges that Gaussian, Inc. is engaged in the
 business of creating and licensing software in the field of
 computational chemistry and represents and warrants to the
 licensee that it is not a competitor of Gaussian, Inc. and that
 it will not use this program in any manner prohibited above.
 ---------------------------------------------------------------
  

 Cite this work as:
 Gaussian 09, Revision D.01,
 M. J. Frisch, G. W. Trucks, H. B. Schlegel, G. E. Scuseria, 
 M. A. Robb, J. R. Cheeseman, G. Scalmani, V. Barone, B. Mennucci, 
 G. A. Petersson, H. Nakatsuji, M. Caricato, X. Li, H. P. Hratchian, 
 A. F. Izmaylov, J. Bloino, G. Zheng, J. L. Sonnenberg, M. Hada, 
 M. Ehara, K. Toyota, R. Fukuda, J. Hasegawa, M. Ishida, T. Nakajima, 
 Y. Honda, O. Kitao, H. Nakai, T. Vreven, J. A. Montgomery, Jr., 
 J. E. Peralta, F. Ogliaro, M. Bearpark, J. J. Heyd, E. Brothers, 
 K. N. Kudin, V. N. Staroverov, T. Keith, R. Kobayashi, J. Normand, 
 K. Raghavachari, A. Rendell, J. C. Burant, S. S. Iyengar, J. Tomasi, 
 M. Cossi, N. Rega, J. M. Millam, M. Klene, J. E. Knox, J. B. Cross, 
 V. Bakken, C. Adamo, J. Jaramillo, R. Gomperts, R. E. Stratmann, 
 O. Yazyev, A. J. Austin, R. Cammi, C. Pomelli, J. W. Ochterski, 
 R. L. Martin, K. Morokuma, V. G. Zakrzewski, G. A. Voth, 
 P. Salvador, J. J. Dannenberg, S. Dapprich, A. D. Daniels, 
 O. Farkas, J. B. Foresman, J. V. Ortiz, J. Cioslowski, 
 and D. J. Fox, Gaussian, Inc., Wallingford CT, 2013.
 
 ******************************************
 Gaussian 09:  AS64L-G09RevD.01 24-Apr-2013
                16-Feb-2019 
 ******************************************
 %chk=check.chk
 %mem=1500mb
 %nproc=8
 Will use up to    8 processors via shared memory.
 ------------------------------------------------
 #P wb97xd/6-311++g(d,p) freq iop(7/33=1) scf=xqc
 ------------------------------------------------
 1/10=4,30=1,38=1/1,3;
 2/12=2,17=6,18=5,40=1/2;
 3/5=4,6=6,7=1111,11=2,16=1,25=1,30=1,71=2,74=-58,140=1/1,2,3;
 4//1;
 5/5=2,8=3,13=1,38=5,98=1/2,8;
 8/6=4,10=90,11=11/1;
 11/6=1,8=1,9=11,15=111,16=1/1,2,10;
 10/6=1/2;
 6/7=2,8=2,9=2,10=2,18=1,28=1/1;
 7/8=1,10=1,25=1,33=1/1,2,3,16;
 1/10=4,30=1/3;
 99//99;
 Leave Link    1 at Sat Feb 16 12:58:42 2019, MaxMem=   196608000 cpu:         0.7
 (Enter /cm/shared/c3ddb/gaussian/09.d01/g09/l101.exe)
 ----
 name
 ----
 Symbolic Z-matrix:
 Charge =  0 Multiplicity = 1
 H                     1.15142  -0.09584  -0.01601 
 H                     1.89587  -0.09584  -0.01601 
 
 NAtoms=      2 NQM=        2 NQMF=       0 NMMI=      0 NMMIF=      0
                NMic=       0 NMicF=      0.
                    Isotopes and Nuclear Properties:
 (Nuclear quadrupole moments (NQMom) in fm**2, nuclear magnetic moments (NMagM)
  in nuclear magnetons)

  Atom         1           2
 IAtWgt=           1           1
 AtmWgt=   1.0078250   1.0078250
 NucSpn=           1           1
 AtZEff=   0.0000000   0.0000000
 NQMom=    0.0000000   0.0000000
 NMagM=    2.7928460   2.7928460
 AtZNuc=   1.0000000   1.0000000
 Leave Link  101 at Sat Feb 16 12:58:43 2019, MaxMem=   196608000 cpu:         0.7
 (Enter /cm/shared/c3ddb/gaussian/09.d01/g09/l103.exe)

 GradGradGradGradGradGradGradGradGradGradGradGradGradGradGradGradGradGrad
 Berny optimization.
 Initialization pass.
 Trust Radius=3.00D-01 FncErr=1.00D-07 GrdErr=1.00D-07
 Number of steps in this run=      2 maximum allowed number of steps=      2.
 GradGradGradGradGradGradGradGradGradGradGradGradGradGradGradGradGradGrad

 Leave Link  103 at Sat Feb 16 12:58:43 2019, MaxMem=   196608000 cpu:         0.1
 (Enter /cm/shared/c3ddb/gaussian/09.d01/g09/l202.exe)
                          Input orientation:                          
 ---------------------------------------------------------------------
 Center     Atomic      Atomic             Coordinates (Angstroms)
 Number     Number       Type             X           Y           Z
 ---------------------------------------------------------------------
      1          1           0        1.151420   -0.095835   -0.016014
      2          1           0        1.895874   -0.095835   -0.016013
 ---------------------------------------------------------------------
 Stoichiometry    H2
 Framework group  D*H[C*(H.H)]
 Deg. of freedom     1
 Full point group                 D*H     NOp   8
 Largest Abelian subgroup         D2H     NOp   8
 Largest concise Abelian subgroup C2      NOp   2
                         Standard orientation:                         
 ---------------------------------------------------------------------
 Center     Atomic      Atomic             Coordinates (Angstroms)
 Number     Number       Type             X           Y           Z
 ---------------------------------------------------------------------
      1          1           0        0.000000    0.000000    0.372227
      2          1           0        0.000000    0.000000   -0.372227
 ---------------------------------------------------------------------
 Rotational constants (GHZ):      0.0000000   1809.6155231   1809.6155231
 Leave Link  202 at Sat Feb 16 12:58:43 2019, MaxMem=   196608000 cpu:         0.3
 (Enter /cm/shared/c3ddb/gaussian/09.d01/g09/l301.exe)
 Standard basis: 6-311++G(d,p) (5D, 7F)
 Ernie: Thresh=  0.10000D-02 Tol=  0.10000D-05 Strict=F.
 There are     5 symmetry adapted cartesian basis functions of AG  symmetry.
 There are     0 symmetry adapted cartesian basis functions of B1G symmetry.
 There are     1 symmetry adapted cartesian basis functions of B2G symmetry.
 There are     1 symmetry adapted cartesian basis functions of B3G symmetry.
 There are     0 symmetry adapted cartesian basis functions of AU  symmetry.
 There are     5 symmetry adapted cartesian basis functions of B1U symmetry.
 There are     1 symmetry adapted cartesian basis functions of B2U symmetry.
 There are     1 symmetry adapted cartesian basis functions of B3U symmetry.
 There are     5 symmetry adapted basis functions of AG  symmetry.
 There are     0 symmetry adapted basis functions of B1G symmetry.
 There are     1 symmetry adapted basis functions of B2G symmetry.
 There are     1 symmetry adapted basis functions of B3G symmetry.
 There are     0 symmetry adapted basis functions of AU  symmetry.
 There are     5 symmetry adapted basis functions of B1U symmetry.
 There are     1 symmetry adapted basis functions of B2U symmetry.
 There are     1 symmetry adapted basis functions of B3U symmetry.
    14 basis functions,    18 primitive gaussians,    14 cartesian basis functions
     1 alpha electrons        1 beta electrons
       nuclear repulsion energy         0.7108259323 Hartrees.
 IExCor= 4639 DFT=T Ex+Corr=wB97XD ExCW=0 ScaHFX=  1.000000
 ScaDFX=  1.000000  1.000000  1.000000  1.000000 ScalE2=  1.000000  1.000000
 IRadAn=      0 IRanWt=     -1 IRanGd=            0 ICorTp=0 IEmpDi=121
  HFx wShort=  0.000000 wLong=  0.200000 cFull=  0.222036 cShort=  0.000000 cLong=  0.777964
  DFx wShort=  0.000000 wLong=  0.200000 cFull=  0.000000 cShort=  0.000000 cLong=  1.000000
 NAtoms=    2 NActive=    2 NUniq=    1 SFac= 4.00D+00 NAtFMM=   60 NAOKFM=F Big=F
 Integral buffers will be    131072 words long.
 Raffenetti 2 integral format.
 Two-electron integral symmetry is turned on.
 R6Disp:  Grimme-D2 Dispersion energy=       -0.0000003649 Hartrees.
 Nuclear repulsion after empirical dispersion term =        0.7108255673 Hartrees.
 Leave Link  301 at Sat Feb 16 12:58:43 2019, MaxMem=   196608000 cpu:         0.4
 (Enter /cm/shared/c3ddb/gaussian/09.d01/g09/l302.exe)
 NPDir=0 NMtPBC=     1 NCelOv=     1 NCel=       1 NClECP=     1 NCelD=      1
         NCelK=      1 NCelE2=     1 NClLst=     1 CellRange=     0.0.
 One-electron integrals computed using PRISM.
 One-electron integral symmetry used in STVInt
 NBasis=    14 RedAO= T EigKep=  9.67D-03  NBF=     5     0     1     1     0     5     1     1
 NBsUse=    14 1.00D-06 EigRej= -1.00D+00 NBFU=     5     0     1     1     0     5     1     1
 Precomputing XC quadrature grid using
 IXCGrd= 4 IRadAn=           0 IRanWt=          -1 IRanGd=           0 AccXCQ= 0.00D+00.
 Generated NRdTot=       0 NPtTot=           0 NUsed=           0 NTot=          32
 NSgBfM=    14    14    14    14    14 MxSgAt=     2 MxSgA2=     2.
 Leave Link  302 at Sat Feb 16 12:58:43 2019, MaxMem=   196608000 cpu:         3.1
 (Enter /cm/shared/c3ddb/gaussian/09.d01/g09/l303.exe)
 DipDrv:  MaxL=1.
 Leave Link  303 at Sat Feb 16 12:58:44 2019, MaxMem=   196608000 cpu:         0.8
 (Enter /cm/shared/c3ddb/gaussian/09.d01/g09/l401.exe)
 ExpMin= 3.60D-02 ExpMax= 3.39D+01 ExpMxC= 3.39D+01 IAcc=3 IRadAn=         5 AccDes= 0.00D+00
 Harris functional with IExCor= 4639 and IRadAn=       5 diagonalized for initial guess.
 HarFok:  IExCor= 4639 AccDes= 0.00D+00 IRadAn=         5 IDoV= 1 UseB2=F ITyADJ=14
 ICtDFT=  3500011 ScaDFX=  1.000000  1.000000  1.000000  1.000000
 FoFCou: FMM=F IPFlag=           0 FMFlag=      100000 FMFlg1=           0
         NFxFlg=           0 DoJE=T BraDBF=F KetDBF=T FulRan=T
         wScrn=  0.000000 ICntrl=     500 IOpCl=  0 I1Cent=   200000004 NGrid=           0
         NMat0=    1 NMatS0=      1 NMatT0=    0 NMatD0=    1 NMtDS0=    0 NMtDT0=    0
 Petite list used in FoFCou.
 Harris En=-0.878855705032849    
 JPrj=0 DoOrth=F DoCkMO=F.
 Initial guess orbital symmetries:
       Occupied  (SGG)
       Virtual   (SGU) (SGG) (SGU) (SGG) (SGU) (PIU) (PIU) (SGG)
                 (PIG) (PIG) (SGU) (SGG) (SGU)
 The electronic state of the initial guess is 1-SGG.
 Leave Link  401 at Sat Feb 16 12:58:44 2019, MaxMem=   196608000 cpu:         4.3
 (Enter /cm/shared/c3ddb/gaussian/09.d01/g09/l502.exe)
 Closed shell SCF:
 Using DIIS extrapolation, IDIIS=  1040.
 Integral symmetry usage will be decided dynamically.
 Keep R1 ints in memory in symmetry-blocked form, NReq=878747.
 IVT=        7699 IEndB=        7699 NGot=   196608000 MDV=   196598123
 LenX=   196598123 LenY=   196597241
 Requested convergence on RMS density matrix=1.00D-08 within  64 cycles.
 Requested convergence on MAX density matrix=1.00D-06.
 Requested convergence on             energy=1.00D-06.
 No special actions if energy rises.
 FoFCou: FMM=F IPFlag=           0 FMFlag=           0 FMFlg1=           0
         NFxFlg=           0 DoJE=F BraDBF=F KetDBF=F FulRan=T
         wScrn=  0.000000 ICntrl=     600 IOpCl=  0 I1Cent=           0 NGrid=           0
         NMat0=    1 NMatS0=    105 NMatT0=    0 NMatD0=    1 NMtDS0=    0 NMtDT0=    0
 Petite list used in FoFCou.

 Cycle   1  Pass 1  IDiag  1:
 E= -1.17575944626331    
 DIIS: error= 5.46D-03 at cycle   1 NSaved=   1.
 NSaved= 1 IEnMin= 1 EnMin= -1.17575944626331     IErMin= 1 ErrMin= 5.46D-03
 ErrMax= 5.46D-03  0.00D+00 EMaxC= 1.00D-01 BMatC= 2.04D-04 BMatP= 2.04D-04
 IDIUse=3 WtCom= 9.45D-01 WtEn= 5.46D-02
 Coeff-Com:  0.100D+01
 Coeff-En:   0.100D+01
 Coeff:      0.100D+01
 Gap=     0.590 Goal=   None    Shift=    0.000
 GapD=    0.590 DampG=2.000 DampE=1.000 DampFc=2.0000 IDamp=-1.
 RMSDP=8.64D-04 MaxDP=4.82D-03              OVMax= 1.03D-02

 Cycle   2  Pass 1  IDiag  1:
 E= -1.17605620642493     Delta-E=       -0.000296760162 Rises=F Damp=F
 DIIS: error= 9.57D-04 at cycle   2 NSaved=   2.
 NSaved= 2 IEnMin= 2 EnMin= -1.17605620642493     IErMin= 2 ErrMin= 9.57D-04
 ErrMax= 9.57D-04  0.00D+00 EMaxC= 1.00D-01 BMatC= 6.59D-06 BMatP= 2.04D-04
 IDIUse=3 WtCom= 9.90D-01 WtEn= 9.57D-03
 Coeff-Com: -0.202D+00 0.120D+01
 Coeff-En:   0.000D+00 0.100D+01
 Coeff:     -0.200D+00 0.120D+01
 Gap=     0.588 Goal=   None    Shift=    0.000
 RMSDP=2.18D-04 MaxDP=1.19D-03 DE=-2.97D-04 OVMax= 3.15D-03

 Cycle   3  Pass 1  IDiag  1:
 E= -1.17607098031909     Delta-E=       -0.000014773894 Rises=F Damp=F
 DIIS: error= 5.96D-05 at cycle   3 NSaved=   3.
 NSaved= 3 IEnMin= 3 EnMin= -1.17607098031909     IErMin= 3 ErrMin= 5.96D-05
 ErrMax= 5.96D-05  0.00D+00 EMaxC= 1.00D-01 BMatC= 3.69D-08 BMatP= 6.59D-06
 IDIUse=1 WtCom= 1.00D+00 WtEn= 0.00D+00
 Coeff-Com:  0.605D-02-0.107D+00 0.110D+01
 Coeff:      0.605D-02-0.107D+00 0.110D+01
 Gap=     0.588 Goal=   None    Shift=    0.000
 RMSDP=1.80D-05 MaxDP=7.32D-05 DE=-1.48D-05 OVMax= 2.95D-04

 Cycle   4  Pass 1  IDiag  1:
 E= -1.17607108310607     Delta-E=       -0.000000102787 Rises=F Damp=F
 DIIS: error= 5.31D-06 at cycle   4 NSaved=   4.
 NSaved= 4 IEnMin= 4 EnMin= -1.17607108310607     IErMin= 4 ErrMin= 5.31D-06
 ErrMax= 5.31D-06  0.00D+00 EMaxC= 1.00D-01 BMatC= 1.90D-10 BMatP= 3.69D-08
 IDIUse=1 WtCom= 1.00D+00 WtEn= 0.00D+00
 Coeff-Com:  0.220D-05 0.131D-01-0.191D+00 0.118D+01
 Coeff:      0.220D-05 0.131D-01-0.191D+00 0.118D+01
 Gap=     0.588 Goal=   None    Shift=    0.000
 RMSDP=2.66D-06 MaxDP=6.90D-06 DE=-1.03D-07 OVMax= 2.23D-05

 Cycle   5  Pass 1  IDiag  1:
 E= -1.17607108371155     Delta-E=       -0.000000000605 Rises=F Damp=F
 DIIS: error= 3.52D-07 at cycle   5 NSaved=   5.
 NSaved= 5 IEnMin= 5 EnMin= -1.17607108371155     IErMin= 5 ErrMin= 3.52D-07
 ErrMax= 3.52D-07  0.00D+00 EMaxC= 1.00D-01 BMatC= 1.03D-12 BMatP= 1.90D-10
 IDIUse=1 WtCom= 1.00D+00 WtEn= 0.00D+00
 Coeff-Com: -0.117D-04-0.204D-02 0.297D-01-0.220D+00 0.119D+01
 Coeff:     -0.117D-04-0.204D-02 0.297D-01-0.220D+00 0.119D+01
 Gap=     0.588 Goal=   None    Shift=    0.000
 RMSDP=2.22D-07 MaxDP=5.70D-07 DE=-6.05D-10 OVMax= 1.81D-06

 Cycle   6  Pass 1  IDiag  1:
 E= -1.17607108371457     Delta-E=       -0.000000000003 Rises=F Damp=F
 DIIS: error= 2.31D-09 at cycle   6 NSaved=   6.
 NSaved= 6 IEnMin= 6 EnMin= -1.17607108371457     IErMin= 6 ErrMin= 2.31D-09
 ErrMax= 2.31D-09  0.00D+00 EMaxC= 1.00D-01 BMatC= 4.00D-17 BMatP= 1.03D-12
 IDIUse=1 WtCom= 1.00D+00 WtEn= 0.00D+00
 Coeff-Com:  0.133D-05-0.344D-04 0.401D-03-0.267D-02 0.129D-01 0.989D+00
 Coeff:      0.133D-05-0.344D-04 0.401D-03-0.267D-02 0.129D-01 0.989D+00
 Gap=     0.588 Goal=   None    Shift=    0.000
 RMSDP=2.29D-10 MaxDP=7.75D-10 DE=-3.02D-12 OVMax= 4.74D-09

 SCF Done:  E(RwB97XD) =  -1.17607108371     A.U. after    6 cycles
            NFock=  6  Conv=0.23D-09     -V/T= 2.0359
 KE= 1.135345896077D+00 PE=-3.636367039403D+00 EE= 6.141244922727D-01
 Leave Link  502 at Sat Feb 16 12:58:47 2019, MaxMem=   196608000 cpu:        14.8
 (Enter /cm/shared/c3ddb/gaussian/09.d01/g09/l508.exe)
 QCSCF skips out because SCF is already converged.
 Leave Link  508 at Sat Feb 16 12:58:47 2019, MaxMem=   196608000 cpu:         0.0
 (Enter /cm/shared/c3ddb/gaussian/09.d01/g09/l801.exe)
 DoSCS=F DFT=T ScalE2(SS,OS)=  1.000000  1.000000
 Range of M.O.s used for correlation:     1    14
 NBasis=    14 NAE=     1 NBE=     1 NFC=     0 NFV=     0
 NROrb=     14 NOA=     1 NOB=     1 NVA=    13 NVB=    13
 Leave Link  801 at Sat Feb 16 12:58:47 2019, MaxMem=   196608000 cpu:         0.2
 (Enter /cm/shared/c3ddb/gaussian/09.d01/g09/l1101.exe)
 Using compressed storage, NAtomX=     2.
 Will process      3 centers per pass.
 R6Disp: Adding Grimme-D2 dispersion energy 1st derivatives to the gradient.
 Leave Link 1101 at Sat Feb 16 12:58:47 2019, MaxMem=   196608000 cpu:         2.5
 (Enter /cm/shared/c3ddb/gaussian/09.d01/g09/l1102.exe)
 Symmetrizing basis deriv contribution to polar:
 IMax=3 JMax=2 DiffMx= 0.00D+00
 Leave Link 1102 at Sat Feb 16 12:58:47 2019, MaxMem=   196608000 cpu:         0.7
 (Enter /cm/shared/c3ddb/gaussian/09.d01/g09/l1110.exe)
 Forming Gx(P) for the SCF density, NAtomX=     2.
 Integral derivatives from FoFJK, PRISM(SPDF).
 Do as many integral derivatives as possible in FoFJK.
 G2DrvN: MDV=     196607880.
 G2DrvN: will do     3 centers at a time, making    1 passes.
 Calling FoFCou, ICntrl=  3107 FMM=F I1Cent=   0 AccDes= 0.00D+00.
 FoFJK:  IHMeth= 1 ICntrl=    3107 DoSepK=T KAlg= 0 I1Cent=   0 FoldK=F
 IRaf=         1 NMat=   1 IRICut=       1 DoRegI=T DoRafI=F ISym2E= 1.
 FoFCou: FMM=F IPFlag=           0 FMFlag=      100000 FMFlg1=           0
         NFxFlg=           0 DoJE=F BraDBF=F KetDBF=F FulRan=T
         wScrn=  0.000000 ICntrl=    3507 IOpCl=  0 I1Cent=           0 NGrid=           0
         NMat0=    1 NMatS0=      1 NMatT0=    0 NMatD0=    1 NMtDS0=    0 NMtDT0=    0
 Petite list used in FoFCou.
 End of G2Drv F.D. properties file   721 does not exist.
 End of G2Drv F.D. properties file   722 does not exist.
 End of G2Drv F.D. properties file   788 does not exist.
 Leave Link 1110 at Sat Feb 16 12:58:48 2019, MaxMem=   196608000 cpu:         3.5
 (Enter /cm/shared/c3ddb/gaussian/09.d01/g09/l1002.exe)
 Minotr:  Closed shell wavefunction.
          IDoAtm=11
          Direct CPHF calculation.
          Differentiating once with respect to electric field.
                with respect to dipole field.
          Differentiating once with respect to nuclear coordinates.
          Using symmetry in CPHF.
          Requested convergence is 1.0D-08 RMS, and 1.0D-07 maximum.
          Secondary convergence is 1.0D-12 RMS, and 1.0D-12 maximum.
          NewPWx=T KeepS1=F KeepF1=F KeepIn=T MapXYZ=F SortEE=F KeepMc=T.
          MDV=     196607962 using IRadAn=       2.
 Generate precomputed XC quadrature information.
 Keep R1 ints in memory in symmetry-blocked form, NReq=870300.
 FoFCou: FMM=F IPFlag=           0 FMFlag=           0 FMFlg1=           0
         NFxFlg=           0 DoJE=F BraDBF=F KetDBF=F FulRan=T
         wScrn=  0.000000 ICntrl=     600 IOpCl=  0 I1Cent=           0 NGrid=           0
         NMat0=    1 NMatS0=    105 NMatT0=    0 NMatD0=    1 NMtDS0=    0 NMtDT0=    0
 Petite list used in FoFCou.
          Solving linear equations simultaneously, MaxMat=       0.
          There are     6 degrees of freedom in the 1st order CPHF.  IDoFFX=4 NUNeed=     6.
      6 vectors produced by pass  0 Test12= 2.17D-16 1.67D-08 XBig12= 2.26D+00 1.10D+00.
 AX will form     6 AO Fock derivatives at one time.
      2 vectors produced by pass  1 Test12= 2.17D-16 1.67D-08 XBig12= 5.09D-02 1.92D-01.
      2 vectors produced by pass  2 Test12= 2.17D-16 1.67D-08 XBig12= 7.58D-05 6.47D-03.
      2 vectors produced by pass  3 Test12= 2.17D-16 1.67D-08 XBig12= 2.03D-07 2.50D-04.
      1 vectors produced by pass  4 Test12= 2.17D-16 1.67D-08 XBig12= 1.66D-10 9.55D-06.
 InvSVY:  IOpt=1 It=  1 EMax= 5.78D-17
 Solved reduced A of dimension    13 with     6 vectors.
 FullF1:  Do perturbations    1 to     6.
 Isotropic polarizability for W=    0.000000        3.05 Bohr**3.
 End of Minotr F.D. properties file   721 does not exist.
 End of Minotr F.D. properties file   722 does not exist.
 End of Minotr F.D. properties file   788 does not exist.
 Leave Link 1002 at Sat Feb 16 12:58:51 2019, MaxMem=   196608000 cpu:        18.4
 (Enter /cm/shared/c3ddb/gaussian/09.d01/g09/l601.exe)
 Copying SCF densities to generalized density rwf, IOpCl= 0 IROHF=0.

 **********************************************************************

            Population analysis using the SCF density.

 **********************************************************************

 Orbital symmetries:
       Occupied  (SGG)
       Virtual   (SGU) (SGG) (SGU) (SGG) (SGU) (PIU) (PIU) (SGG)
                 (PIG) (PIG) (SGU) (SGG) (SGU)
 The electronic state is 1-SGG.
 Alpha  occ. eigenvalues --   -0.51641
 Alpha virt. eigenvalues --    0.07120   0.07696   0.20594   0.42500   0.64269
 Alpha virt. eigenvalues --    1.17214   1.17214   1.69954   1.91544   1.91544
 Alpha virt. eigenvalues --    2.13950   2.58551   3.40850
          Condensed to atoms (all electrons):
               1          2
     1  H    0.585037   0.414963
     2  H    0.414963   0.585037
 Mulliken charges:
               1
     1  H    0.000000
     2  H    0.000000
 Sum of Mulliken charges =   0.00000
 Mulliken charges with hydrogens summed into heavy atoms:
               1
 APT charges:
               1
     1  H    0.000000
     2  H    0.000000
 Sum of APT charges =   0.00000
 APT charges with hydrogens summed into heavy atoms:
               1
 Electronic spatial extent (au):  <R**2>=              5.2001
 Charge=              0.0000 electrons
 Dipole moment (field-independent basis, Debye):
    X=              0.0000    Y=              0.0000    Z=              0.0000  Tot=              0.0000
 Quadrupole moment (field-independent basis, Debye-Ang):
   XX=             -2.0743   YY=             -2.0743   ZZ=             -1.5147
   XY=              0.0000   XZ=              0.0000   YZ=              0.0000
 Traceless Quadrupole moment (field-independent basis, Debye-Ang):
   XX=             -0.1865   YY=             -0.1865   ZZ=              0.3730
   XY=              0.0000   XZ=              0.0000   YZ=              0.0000
 Octapole moment (field-independent basis, Debye-Ang**2):
  XXX=              0.0000  YYY=              0.0000  ZZZ=              0.0000  XYY=              0.0000
  XXY=              0.0000  XXZ=              0.0000  XZZ=              0.0000  YZZ=              0.0000
  YYZ=              0.0000  XYZ=              0.0000
 Hexadecapole moment (field-independent basis, Debye-Ang**3):
 XXXX=             -2.0893 YYYY=             -2.0893 ZZZZ=             -2.9693 XXXY=              0.0000
 XXXZ=              0.0000 YYYX=              0.0000 YYYZ=              0.0000 ZZZX=              0.0000
 ZZZY=              0.0000 XXYY=             -0.6964 XXZZ=             -0.8595 YYZZ=             -0.8595
 XXYZ=              0.0000 YYXZ=              0.0000 ZZXY=              0.0000
 N-N= 7.108255673389D-01 E-N=-3.636367042506D+00  KE= 1.135345896077D+00
 Symmetry AG   KE= 1.135345896077D+00
 Symmetry B1G  KE= 0.000000000000D+00
 Symmetry B2G  KE= 3.027774786174D-34
 Symmetry B3G  KE= 3.027775830798D-34
 Symmetry AU   KE= 0.000000000000D+00
 Symmetry B1U  KE= 7.697837093460D-32
 Symmetry B2U  KE= 6.308861618997D-35
 Symmetry B3U  KE= 6.308859442353D-35
  Exact polarizability:   1.100   0.000   1.100   0.000   0.000   6.938
 Approx polarizability:   1.050   0.000   1.050   0.000   0.000   6.101
 No NMR shielding tensors so no spin-rotation constants.
 Leave Link  601 at Sat Feb 16 12:58:52 2019, MaxMem=   196608000 cpu:         3.1
 (Enter /cm/shared/c3ddb/gaussian/09.d01/g09/l701.exe)
 Compute integral second derivatives.
 ... and contract with generalized density number  0.
 R6Disp: Adding Grimme-D2 dispersion energy 2nd derivatives to the Hessian.
 Entering OneElI...
 Calculate overlap and kinetic energy integrals
    NBasis =  14  MinDer = 2  MaxDer = 2
 Requested accuracy = 0.1000D-12
 PrsmSu:  NPrtUS=   8 ThrOK=T IAlg=1 NPAlg=1 LenDen=           0.
 Prism:   IPart=     0 DynPar=F LinDyn=F Incr=           1.
 PRISM was handed    24574181 working-precision words and    55 shell-pairs
 PRISM was handed    24574181 working-precision words and    55 shell-pairs
 PRISM was handed    24574181 working-precision words and    55 shell-pairs
 PRISM was handed    24574181 working-precision words and    55 shell-pairs
 PRISM was handed    24574181 working-precision words and    55 shell-pairs
 PRISM was handed    24574181 working-precision words and    55 shell-pairs
 IPart=  5 NShTot=           4 NBatch=           3 AvBLen=         1.3
 IPart=  0 NShTot=          10 NBatch=           6 AvBLen=         1.7
 IPart=  3 NShTot=           8 NBatch=           4 AvBLen=         2.0
 IPart=  6 NShTot=           4 NBatch=           3 AvBLen=         1.3
 IPart=  1 NShTot=          10 NBatch=           6 AvBLen=         1.7
 IPart=  2 NShTot=          10 NBatch=           6 AvBLen=         1.7
 PRISM was handed    24574181 working-precision words and    55 shell-pairs
 PRISM was handed    24574181 working-precision words and    55 shell-pairs
 IPart=  7 NShTot=           4 NBatch=           3 AvBLen=         1.3
 IPart=  4 NShTot=           5 NBatch=           3 AvBLen=         1.7
 PrSmSu:  NxtVal=              9.
 Entering OneElI...
 Calculate potential energy integrals
    NBasis =  14  MinDer = 2  MaxDer = 2
 Requested accuracy = 0.1000D-12
 PrsmSu:  NPrtUS=   8 ThrOK=T IAlg=1 NPAlg=1 LenDen=           0.
 Prism:   IPart=     0 DynPar=F LinDyn=F Incr=           1.
 PRISM was handed    24574199 working-precision words and    55 shell-pairs
 PRISM was handed    24574199 working-precision words and    55 shell-pairs
 PRISM was handed    24574199 working-precision words and    55 shell-pairs
 PRISM was handed    24574199 working-precision words and    55 shell-pairs
 PRISM was handed    24574199 working-precision words and    55 shell-pairs
 PRISM was handed    24574199 working-precision words and    55 shell-pairs
 PRISM was handed    24574199 working-precision words and    55 shell-pairs
 PRISM was handed    24574199 working-precision words and    55 shell-pairs
 IPart=  0 NShTot=          22 NBatch=          11 AvBLen=         2.0
 IPart=  3 NShTot=          16 NBatch=           8 AvBLen=         2.0
 IPart=  5 NShTot=           8 NBatch=           4 AvBLen=         2.0
 IPart=  6 NShTot=           8 NBatch=           4 AvBLen=         2.0
 IPart=  1 NShTot=          20 NBatch=          10 AvBLen=         2.0
 IPart=  2 NShTot=          18 NBatch=           9 AvBLen=         2.0
 IPart=  4 NShTot=          10 NBatch=           5 AvBLen=         2.0
 IPart=  7 NShTot=           8 NBatch=           4 AvBLen=         2.0
 PrSmSu:  NxtVal=              9.
 Polarizability after L701:
                1             2             3 
      1  0.110032D+01
      2  0.000000D+00  0.110032D+01
      3  0.000000D+00  0.000000D+00  0.693768D+01
 Dipole Derivatives after L701:
                 1             2             3             4             5 
      1   0.000000D+00  0.000000D+00  0.000000D+00  0.000000D+00  0.000000D+00
      2   0.000000D+00  0.000000D+00  0.000000D+00  0.000000D+00  0.000000D+00
      3   0.000000D+00  0.000000D+00  0.000000D+00  0.000000D+00  0.000000D+00
                 6 
      1   0.000000D+00
      2   0.000000D+00
      3   0.000000D+00
 Hessian after L701:
                1             2             3             4             5 
      1  0.299296D+00
      2  0.000000D+00  0.299296D+00
      3  0.000000D+00  0.000000D+00  0.243569D+00
      4 -0.299296D+00  0.000000D+00  0.000000D+00  0.299296D+00
      5  0.000000D+00 -0.299296D+00  0.000000D+00  0.000000D+00  0.299296D+00
      6  0.000000D+00  0.000000D+00 -0.243569D+00  0.000000D+00  0.000000D+00
                6 
      6  0.243569D+00
 Leave Link  701 at Sat Feb 16 12:58:52 2019, MaxMem=   196608000 cpu:         2.5
 (Enter /cm/shared/c3ddb/gaussian/09.d01/g09/l702.exe)
 L702 exits ... SP integral derivatives will be done elsewhere.
 Leave Link  702 at Sat Feb 16 12:58:52 2019, MaxMem=   196608000 cpu:         0.3
 (Enter /cm/shared/c3ddb/gaussian/09.d01/g09/l703.exe)
 Compute integral second derivatives, UseDBF=F ICtDFT=           0.
 Integral derivatives from FoFJK, PRISM(SPDF).
 ICntrl=    100127.
 Calling FoFJK, ICntrl=    100127 FMM=F ISym2X=1 I1Cent= 0 IOpClX= 0 NMat=1 NMatS=1 NMatT=0.
 FoFJK:  IHMeth= 1 ICntrl=  100127 DoSepK=T KAlg= 0 I1Cent=   0 FoldK=F
 IRaf=         1 NMat=   1 IRICut=       1 DoRegI=T DoRafI=F ISym2E= 1.
 FoFCou: FMM=F IPFlag=           0 FMFlag=      100000 FMFlg1=         800
         NFxFlg=           0 DoJE=F BraDBF=F KetDBF=F FulRan=T
         wScrn=  0.000000 ICntrl=  100527 IOpCl=  0 I1Cent=           0 NGrid=           0
         NMat0=    1 NMatS0=      1 NMatT0=    0 NMatD0=    1 NMtDS0=    0 NMtDT0=    0
 Petite list used in FoFCou.
 FoFCou:  KetSym=F NOpSet=  8 NOpAb=8 NOp=  8.
 FoFCou:  CnvScl= 1.00D+00 Thresh= 1.00D-10 IAcrcy=      10.
 PrismS was handed   196603607 working-precision words and    55 shell-pairs
 FoFCou: LinMIO=F DoNuc=F BraDBF=F KetDBF=F HaveP=T PDBF=F HaveZ=T HaveW=F
         NIJTC =       3 NIJTAt=       0 NIJTCD=       0 NIJTT =       3
         IJTBeg=       1 IJTEnd=       3 KLTBeg=       1 KLTEnd=       3
         IPTBeg=       1 IPTEnd=       3 IPTBCv=       1 IPTECv=       3
         IZTBeg=       1 IZTEnd=       3 IZTBCv=       1 IZTECv=       3
         IWTBeg=       4 IWTEnd=       3 IWTBCv=       4 IWTECv=       3
         INTBeg=       1 INTEnd=       0 IFTBCv=       1 IFTECv=       3
 NCel replicated for PrismC:     1
 CoulSu:  IncDef=  1024 NBBP=           1540 NTPThr=   100 NPartT=    8 Incr=           1 LDynOK=F.
 CoulSu:  NPrtUS=   8 ThrOK=T IAlg=1 NPAlg=1 LenDen=           0 LWGrdD=           0 DoCopy=F.
 Enter PrismC: JobTyp=22 DoJE=F Cont=F.
 PrismC:  IPart=     0 DynPar=F LinDyn=F Incr=           1 UseFst=F UseS4=T IGathr=2.
 Enter PrismC: JobTyp=22 DoJE=F Cont=F.
 Enter PrismC: JobTyp=22 DoJE=F Cont=F.
 Enter PrismC: JobTyp=22 DoJE=F Cont=F.
 PrismC was handed    24574125 working-precision words and    55 shell-pairs
 PrismC was handed    24574125 working-precision words and    55 shell-pairs
 Enter PrismC: JobTyp=22 DoJE=F Cont=F.
 PrismC was handed    24574125 working-precision words and    55 shell-pairs
 PrismC was handed    24574125 working-precision words and    55 shell-pairs
 Enter PrismC: JobTyp=22 DoJE=F Cont=F.
 PrismC was handed    24574125 working-precision words and    55 shell-pairs
 PrismC was handed    24574125 working-precision words and    55 shell-pairs
 Enter PrismC: JobTyp=22 DoJE=F Cont=F.
 Enter PrismC: JobTyp=22 DoJE=F Cont=F.
 PrismC was handed    24574125 working-precision words and    55 shell-pairs
 PrismC was handed    24574125 working-precision words and    55 shell-pairs
 IPart=  5 NShTot=          96 NShNF=          96 NShFF=           0 NBatch=          20 AvBLen=         4.8
 IPart=  0 NShTot=         102 NShNF=         102 NShFF=           0 NBatch=          23 AvBLen=         4.4
 IPart=  6 NShTot=          96 NShNF=          96 NShFF=           0 NBatch=          19 AvBLen=         5.1
 IPart=  3 NShTot=         105 NShNF=         105 NShFF=           0 NBatch=          22 AvBLen=         4.8
 IPart=  7 NShTot=          94 NShNF=          94 NShFF=           0 NBatch=          19 AvBLen=         4.9
 IPart=  4 NShTot=          95 NShNF=          95 NShFF=           0 NBatch=          20 AvBLen=         4.8
 IPart=  2 NShTot=          98 NShNF=          98 NShFF=           0 NBatch=          22 AvBLen=         4.5
 IPart=  1 NShTot=         104 NShNF=         104 NShFF=           0 NBatch=          26 AvBLen=         4.0
 CoulSu:  NxtVal=              9.
 FoFCou: FMM=F IPFlag=           0 FMFlag=      100000 FMFlg1=         800
         NFxFlg=           0 DoJE=F BraDBF=F KetDBF=F FulRan=T
         wScrn=  0.000000 ICntrl=  100127 IOpCl=  0 I1Cent=           0 NGrid=           0
         NMat0=    1 NMatS0=      0 NMatT0=    1 NMatD0=    1 NMtDS0=    0 NMtDT0=    0
         CW=    0.222036    0.777964
         WU=    0.000000   12.500000
 Petite list used in FoFCou.
 FoFCou:  KetSym=F NOpSet=  8 NOpAb=8 NOp=  8.
 FoFCou:  CnvScl= 1.00D+00 Thresh= 1.00D-10 IAcrcy=      10.
 PrismS was handed   196603621 working-precision words and    55 shell-pairs
 FoFCou: LinMIO=F DoNuc=F BraDBF=F KetDBF=F HaveP=T PDBF=F HaveZ=T HaveW=F
         NIJTC =       3 NIJTAt=       0 NIJTCD=       0 NIJTT =       3
         IJTBeg=       1 IJTEnd=       3 KLTBeg=       1 KLTEnd=       3
         IPTBeg=       1 IPTEnd=       3 IPTBCv=       1 IPTECv=       3
         IZTBeg=       1 IZTEnd=       3 IZTBCv=       1 IZTECv=       3
         IWTBeg=       4 IWTEnd=       3 IWTBCv=       4 IWTECv=       3
         INTBeg=       1 INTEnd=       0 IFTBCv=       1 IFTECv=       3
 NCel replicated for PrismC:     1
 CoulSu:  IncDef=  1024 NBBP=           1540 NTPThr=   100 NPartT=    8 Incr=           1 LDynOK=F.
 CoulSu:  NPrtUS=   8 ThrOK=T IAlg=1 NPAlg=1 LenDen=           0 LWGrdD=           0 DoCopy=F.
 Enter PrismC: JobTyp=22 DoJE=F Cont=F.
 Enter PrismC: JobTyp=22 DoJE=F Cont=F.
 Linear combination for Coulomb/exchange, wScrn=  0.000000
 CW=    0.222036    0.777964
 WU=    0.000000   12.500000
 PrismC:  IPart=     0 DynPar=F LinDyn=F Incr=           1 UseFst=F UseS4=T IGathr=2.
 PrismC was handed    24574126 working-precision words and    55 shell-pairs
 Enter PrismC: JobTyp=22 DoJE=F Cont=F.
 Linear combination for Coulomb/exchange, wScrn=  0.000000
 CW=    0.222036    0.777964
 WU=    0.000000   12.500000
 Linear combination for Coulomb/exchange, wScrn=  0.000000
 CW=    0.222036    0.777964
 WU=    0.000000   12.500000
 PrismC was handed    24574126 working-precision words and    55 shell-pairs
 PrismC was handed    24574126 working-precision words and    55 shell-pairs
 Enter PrismC: JobTyp=22 DoJE=F Cont=F.
 Linear combination for Coulomb/exchange, wScrn=  0.000000
 CW=    0.222036    0.777964
 WU=    0.000000   12.500000
 PrismC was handed    24574126 working-precision words and    55 shell-pairs
 Enter PrismC: JobTyp=22 DoJE=F Cont=F.
 Linear combination for Coulomb/exchange, wScrn=  0.000000
 CW=    0.222036    0.777964
 WU=    0.000000   12.500000
 PrismC was handed    24574126 working-precision words and    55 shell-pairs
 Enter PrismC: JobTyp=22 DoJE=F Cont=F.
 Enter PrismC: JobTyp=22 DoJE=F Cont=F.
 Linear combination for Coulomb/exchange, wScrn=  0.000000
 CW=    0.222036    0.777964
 WU=    0.000000   12.500000
 Enter PrismC: JobTyp=22 DoJE=F Cont=F.
 Linear combination for Coulomb/exchange, wScrn=  0.000000
 CW=    0.222036    0.777964
 WU=    0.000000   12.500000
 PrismC was handed    24574126 working-precision words and    55 shell-pairs
 PrismC was handed    24574126 working-precision words and    55 shell-pairs
 Linear combination for Coulomb/exchange, wScrn=  0.000000
 CW=    0.222036    0.777964
 WU=    0.000000   12.500000
 PrismC was handed    24574126 working-precision words and    55 shell-pairs
 IPart=  0 NShTot=         102 NShNF=         102 NShFF=           0 NBatch=          23 AvBLen=         4.4
 IPart=  5 NShTot=          96 NShNF=          96 NShFF=           0 NBatch=          20 AvBLen=         4.8
 IPart=  6 NShTot=          96 NShNF=          96 NShFF=           0 NBatch=          19 AvBLen=         5.1
 IPart=  3 NShTot=         105 NShNF=         105 NShFF=           0 NBatch=          22 AvBLen=         4.8
 IPart=  7 NShTot=          94 NShNF=          94 NShFF=           0 NBatch=          19 AvBLen=         4.9
 IPart=  4 NShTot=          95 NShNF=          95 NShFF=           0 NBatch=          20 AvBLen=         4.8
 IPart=  2 NShTot=          98 NShNF=          98 NShFF=           0 NBatch=          22 AvBLen=         4.5
 IPart=  1 NShTot=         104 NShNF=         104 NShFF=           0 NBatch=          26 AvBLen=         4.0
 CoulSu:  NxtVal=              9.
 ReadGW:  IGet=0 IStart=           1 Next=           1 LGW=           0.
 Remaining memory in FofDFT      187.50 Mw
 CkSvGd:  ISavGI=        -1 IRadAn=       4 IRASav=       0 ISavGd=        -1.
 CalDSu:  NPrtUS=   8 ThrOK=T IAlg=1 NPAlg=2 DoDPD=T LenP=         105 LenD1P=             0.
 IPart=  0 IRanGd=          0 ScrnBf=T ScrnGd=T RCrit=4.00D+00 DoMicB=T.
 IPart=  3          394 of          410 points in       3 batches and        3 microbatches, Max-NSigAt=       2 Max-NSgAt2=       2
 IPart=  0          472 of          488 points in       3 batches and        4 microbatches, Max-NSigAt=       2 Max-NSgAt2=       2
 IPart=  5          404 of          426 points in       3 batches and        6 microbatches, Max-NSigAt=       2 Max-NSgAt2=       2
 IPart=  4           74 of           82 points in       1 batches and        1 microbatches, Max-NSigAt=       2 Max-NSgAt2=       2
 IPart=  6          330 of          344 points in       2 batches and        4 microbatches, Max-NSigAt=       2 Max-NSgAt2=       2
 IPart=  1          168 of          168 points in       1 batches and        1 microbatches, Max-NSigAt=       2 Max-NSgAt2=       2
 IPart=  2          244 of          254 points in       2 batches and        4 microbatches, Max-NSigAt=       2 Max-NSgAt2=       2
 IPart=  7          236 of          254 points in       2 batches and        4 microbatches, Max-NSigAt=       2 Max-NSgAt2=       2
 Polarizability after L703:
                1             2             3 
      1  0.110032D+01
      2  0.000000D+00  0.110032D+01
      3  0.000000D+00  0.000000D+00  0.693768D+01
 Dipole Derivatives after L703:
                 1             2             3             4             5 
      1   0.000000D+00  0.000000D+00  0.000000D+00  0.000000D+00  0.000000D+00
      2   0.000000D+00  0.000000D+00  0.000000D+00  0.000000D+00  0.000000D+00
      3   0.000000D+00  0.000000D+00  0.000000D+00  0.000000D+00  0.000000D+00
                 6 
      1   0.000000D+00
      2   0.000000D+00
      3   0.000000D+00
 Hessian after L703:
                1             2             3             4             5 
      1 -0.134695D-02
      2  0.000000D+00 -0.134695D-02
      3  0.000000D+00  0.000000D+00  0.374815D+00
      4  0.134695D-02  0.000000D+00  0.000000D+00 -0.134695D-02
      5  0.000000D+00  0.134695D-02  0.000000D+00  0.000000D+00 -0.134695D-02
      6  0.000000D+00  0.000000D+00 -0.374815D+00  0.000000D+00  0.000000D+00
                6 
      6  0.374815D+00
 Leave Link  703 at Sat Feb 16 12:58:53 2019, MaxMem=   196608000 cpu:         3.0
 (Enter /cm/shared/c3ddb/gaussian/09.d01/g09/l716.exe)
 FrcOut:
 IF    =    27 IFX   =    33 IFXYZ =    39
 IFFX  =    45 IFFFX =    66 IFLen =     6
 IFFLen=    21 IFFFLn=     0 IEDerv=    66
 LEDerv=   341 IFroze=   503 ICStrt=   954
 Dipole        =-1.47911420D-31 1.02638593D-34-1.14166489D-16
 DipoleDeriv   =-1.96964298D-15 5.19961117D-21 8.79590028D-13
                 5.12484249D-20-1.70420318D-15 8.29090050D-12
                 2.60905510D-12-6.81039293D-12-1.38299600D-09
                -3.03649792D-15-5.19961040D-21-2.86145813D-14
                -5.12484259D-20-1.82693487D-15-8.29090050D-12
                 2.31499937D-12 6.81039293D-12-1.22062709D-09
 Polarizability= 1.10032390D+00-7.06459536D-20 1.10032390D+00
                -2.43098414D-12 8.60934055D-12 6.93767662D+00
 VibFq2-Diag1:  N=      6 IV=           3 MDV=   196606728 NE2=    32767787
 Full mass-weighted force constant matrix:
 Low frequencies --- -265.7681 -265.7681   -0.0001    0.0000    0.0001 4433.3825
 OrtVCM:  Ph=1 IPass= 1 DotMx1= 0.00D+00
 OrtVCM:  IS=    1 I=    1 IndO=    1 Dot= 1.00D+00 DotN= 1.00D+00 ElMax1= 7.07D-01 ElMax1N= 7.07D-01
 OrtVCM:  Ph=2 NNew=    0 IAdd=    2 IPass= 1 DotMx2= 0.00D+00
 OrtVCM:  IS=    1 I=    2 IndO=    2 Dot= 1.00D+00 DotN= 1.00D+00 ElMax1= 7.07D-01 ElMax1N= 7.07D-01
 OrtVCM:  Ph=2 NNew=    0 IAdd=    3 IPass= 1 DotMx2= 0.00D+00
 OrtVCM:  IS=    1 I=    3 IndO=    3 Dot= 1.00D+00 DotN= 1.00D+00 ElMax1= 7.07D-01 ElMax1N= 7.07D-01
 OrtVCM:  Ph=2 NNew=    0 IAdd=    4 IPass= 1 DotMx2= 1.11D-16
 OrtVCM:  IS=    1 I=    4 IndO=    4 Dot= 1.00D+00 DotN= 1.00D+00 ElMax1= 7.07D-01 ElMax1N= 7.07D-01
 OrtVCM:  Ph=2 NNew=    0 IAdd=    5 IPass= 1 DotMx2= 1.11D-16
 OrtVCM:  IS=    1 I=    5 IndO=    5 Dot= 1.00D+00 DotN= 1.00D+00 ElMax1= 7.07D-01 ElMax1N= 7.07D-01
 OrtVCM:  Ph=1 IPass= 1 DotMx1= 7.07D-01
 OrtVCM:  Ph=1 IPass= 2 DotMx1= 2.36D-16
 OrtVCM:  IS=    1 I=    1 IndO=    0 Dot= 1.87D-33 DotN= 1.87D-33 ElMax1= 3.06D-17 ElMax1N= 3.06D-17
 SchOr2:  IPass= 1 Test2A= 1.00D-01 IOff=     0 NDo=     1 NNew=     0
 OrtVCM:  Ph=1 IPass= 1 DotMx1= 7.07D-01
 OrtVCM:  Ph=1 IPass= 2 DotMx1= 2.36D-16
 OrtVCM:  IS=    1 I=    1 IndO=    0 Dot= 1.60D-63 DotN= 1.60D-63 ElMax1= 3.70D-32 ElMax1N= 3.70D-32
 SchOr2:  IPass= 1 Test2A= 1.00D-01 IOff=     1 NDo=     1 NNew=     0
 OrtVCM:  Ph=1 IPass= 1 DotMx1= 7.07D-01
 OrtVCM:  Ph=1 IPass= 2 DotMx1= 1.11D-16
 OrtVCM:  IS=    1 I=    1 IndO=    6 Dot= 5.00D-01 DotN= 5.00D-01 ElMax1= 5.00D-01 ElMax1N= 5.00D-01
 SchOr2:  IPass= 1 Test2A= 1.00D-01 IOff=     2 NDo=     1 NNew=     1
 VibFq2-Diag2:  N=      1 IV=           3 MDV=   196606728 NE2=   196606726
 Dipole derivatives wrt mode   1:  6.46692D-12 -2.99551D-10 -3.57084D-09
 Vibrational polarizability contributions from mode   1       0.0000000       0.0000000       0.0000000
 Vibrational hyperpolarizability contributions from mode   1       0.0000000       0.0000000       0.0000000
 Diagonal vibrational polarizability:
        0.0000000       0.0000000       0.0000000
 NorSel:  MapVib=      1
 Harmonic frequencies (cm**-1), IR intensities (KM/Mole), Raman scattering
 activities (A**4/AMU), depolarization ratios for plane and unpolarized
 incident light, reduced masses (AMU), force constants (mDyne/A),
 and normal coordinates:
                      1
                     SGG
 Frequencies --   4433.3825
 Red. masses --      1.0078
 Frc consts  --     11.6709
 IR Inten    --      0.0000
  Atom  AN      X      Y      Z
     1   1     0.00   0.00   0.71
     2   1     0.00   0.00  -0.71

 -------------------
 - Thermochemistry -
 -------------------
 Temperature   298.150 Kelvin.  Pressure   1.00000 Atm.
 Atom     1 has atomic number  1 and mass   1.00783
 Atom     2 has atomic number  1 and mass   1.00783
 Molecular mass:     2.01565 amu.
 Principal axes and moments of inertia in atomic units:
                           1         2         3
     Eigenvalues --     0.00000   0.99731   0.99731
           X            0.00000   1.00000   0.00000
           Y            0.00000   0.00000   1.00000
           Z            1.00000   0.00000   0.00000
 This molecule is a prolate symmetric top.
 Rotational symmetry number  2.
 Rotational temperature (Kelvin)     86.84774
 Rotational constant (GHZ):        1809.615523
 Zero-point vibrational energy      26517.5 (Joules/Mol)
                                    6.33784 (Kcal/Mol)
 Vibrational temperatures:   6378.64
          (Kelvin)
 
 Zero-point correction=                           0.010100 (Hartree/Particle)
 Thermal correction to Energy=                    0.012460
 Thermal correction to Enthalpy=                  0.013405
 Thermal correction to Gibbs Free Energy=        -0.001392
 Sum of electronic and zero-point Energies=             -1.165971
 Sum of electronic and thermal Energies=                -1.163611
 Sum of electronic and thermal Enthalpies=              -1.162666
 Sum of electronic and thermal Free Energies=           -1.177463
 
                     E (Thermal)             CV                S
                      KCal/Mol        Cal/Mol-Kelvin    Cal/Mol-Kelvin
 Total                    7.819              4.968             31.141
 Electronic               0.000              0.000              0.000
 Translational            0.889              2.981             28.080
 Rotational               0.592              1.987              3.061
 Vibrational              6.338              0.000              0.000
                       Q            Log10(Q)             Ln(Q)
 Total Bot       0.436578D+01          0.640062          1.473797
 Total V=0       0.193074D+06          5.285724         12.170830
 Vib (Bot)       0.226119D-04         -4.645662        -10.697033
 Vib (V=0)       0.100000D+01          0.000000          0.000000
 Electronic      0.100000D+01          0.000000          0.000000
 Translational   0.112481D+06          5.051078         11.630537
 Rotational      0.171651D+01          0.234646          0.540293
 Forces in standard orientation:
 -------------------------------------------------------------------
 Center     Atomic                   Forces (Hartrees/Bohr)
 Number     Number              X              Y              Z
 -------------------------------------------------------------------
      1        1           0.000000000    0.000000000    0.000060475
      2        1           0.000000000    0.000000000   -0.000060475
 -------------------------------------------------------------------
 ***** Axes restored to original set *****
 Rotating derivatives, DoTrsp=F IDiff=-2 LEDeriv=    340 LFDPrp=       0 LDFDPr=       0.
 -------------------------------------------------------------------
 Center     Atomic                   Forces (Hartrees/Bohr)
 Number     Number              X              Y              Z
 -------------------------------------------------------------------
      1        1           0.000060475    0.000000000    0.000000000
      2        1          -0.000060475    0.000000000    0.000000000
 -------------------------------------------------------------------
 Cartesian Forces:  Max     0.000060475 RMS     0.000034915
 Z-matrix is all fixed cartesians, so copy forces.
 Force constants in Cartesian coordinates: 
                1             2             3             4             5 
      1  0.374815D+00
      2  0.000000D+00 -0.134695D-02
      3  0.000000D+00  0.000000D+00 -0.134695D-02
      4 -0.374815D+00  0.000000D+00  0.000000D+00  0.374815D+00
      5  0.000000D+00  0.134695D-02  0.000000D+00  0.000000D+00 -0.134695D-02
      6  0.000000D+00  0.000000D+00  0.134695D-02  0.000000D+00  0.000000D+00
                6 
      6 -0.134695D-02
 Final forces over variables, Energy=-1.17607108D+00:
  6.04751290D-05-6.04751290D-05 4.94126795D-19-4.94126795D-19
  8.12342301D-11-8.12342301D-11
 Leave Link  716 at Sat Feb 16 12:58:53 2019, MaxMem=   196608000 cpu:         1.8
 (Enter /cm/shared/c3ddb/gaussian/09.d01/g09/l103.exe)

 GradGradGradGradGradGradGradGradGradGradGradGradGradGradGradGradGradGrad
 Berny optimization.
 Search for a local minimum.
 Step number   1 out of a maximum of    2
 All quantities printed in internal units (Hartrees-Bohrs-Radians)
 Second derivative matrix not updated -- analytic derivatives used.
 The second derivative matrix:
                          X1        Y1        Z1        X2        Y2
           X1           0.37482
           Y1           0.00000  -0.00135
           Z1           0.00000   0.00000  -0.00135
           X2          -0.37482   0.00000   0.00000   0.37482
           Y2           0.00000   0.00135   0.00000   0.00000  -0.00135
           Z2           0.00000   0.00000   0.00135   0.00000   0.00000
                          Z2
           Z2          -0.00135
 ITU=  0
     Eigenvalues ---    0.74963
 Angle between quadratic step and forces=   0.00 degrees.
 ClnCor:  largest displacement from symmetrization is 1.09D-19 for atom     2.
 Linear search not attempted -- first point.
 ClnCor:  largest displacement from symmetrization is 4.44D-16 for atom     1.
 TrRot=  0.000000  0.000000  0.000000  0.000000  0.000000  0.000000
 Variable       Old X    -DE/DX   Delta X   Delta X   Delta X     New X
                                 (Linear)    (Quad)   (Total)
    X1        2.17587   0.00006   0.00000   0.00008   0.00008   2.17595
    Y1       -0.18110   0.00000   0.00000   0.00000   0.00000  -0.18110
    Z1       -0.03026   0.00000   0.00000   0.00000   0.00000  -0.03026
    X2        3.58268  -0.00006   0.00000  -0.00008  -0.00008   3.58260
    Y2       -0.18110   0.00000   0.00000   0.00000   0.00000  -0.18110
    Z2       -0.03026   0.00000   0.00000   0.00000   0.00000  -0.03026
         Item               Value     Threshold  Converged?
 Maximum Force            0.000060     0.000450     YES
 RMS     Force            0.000035     0.000300     YES
 Maximum Displacement     0.000081     0.001800     YES
 RMS     Displacement     0.000047     0.001200     YES
 Predicted change in Energy=-4.878728D-09
 Optimization completed.
    -- Stationary point found.
 GradGradGradGradGradGradGradGradGradGradGradGradGradGradGradGradGradGrad

 Leave Link  103 at Sat Feb 16 12:58:53 2019, MaxMem=   196608000 cpu:         0.8
 (Enter /cm/shared/c3ddb/gaussian/09.d01/g09/l9999.exe)

 Test job not archived.
 1\1\GINC-NODE006\Freq\RwB97XD\6-311++G(d,p)\H2\DUMINDA\16-Feb-2019\0\\
 #P wb97xd/6-311++g(d,p) freq iop(7/33=1) scf=xqc\\name\\0,1\H,1.15142,
 -0.095835,-0.016014\H,1.895874,-0.095835,-0.016013\\Version=AS64L-G09R
 evD.01\State=1-SGG\HF=-1.1760711\RMSD=2.289e-10\RMSF=3.492e-05\ZeroPoi
 nt=0.0101\Thermal=0.0124605\Dipole=0.,0.,0.\DipoleDeriv=0.,0.,0.,0.,0.
 ,0.,0.,0.,0.,0.,0.,0.,0.,0.,0.,0.,0.,0.\Polar=6.9376766,0.,1.1003239,0
 .0000078,0.,1.1003239\PG=D*H [C*(H1.H1)]\NImag=0\\0.37481503,0.,-0.001
 34695,0.00000051,0.,-0.00134695,-0.37481503,0.,-0.00000051,0.37481503,
 0.,0.00134695,0.,0.,-0.00134695,-0.00000051,0.,0.00134695,0.00000051,0
 .,-0.00134695\\-0.00006048,0.,0.,0.00006048,0.,0.\\\@


 WE HAVE SEEN THAT MAN ON THE AVERAGE DOES NOT LIVE ABOVE
 TWO-AND-TWENTY YEARS.  DURING THESE TWO AND TWENTY
 YEARS HE IS LIABLE TO TWO AND TWENTY THOUSAND EVILS,
 MANY OF WHICH ARE INCURABLE.  YET EVEN IN THIS DREADFUL STATE
 MEN STILL STRUT AND POSE ON THE STAGE OF LIFE.
 THEY MAKE LOVE AT THE RISK OF DESTRUCTION,
 INTRIGUE, CARRY ON WAR, AND FORM PROJECTS, JUST AS IF THEY
 WERE TO LIVE IN LUXURY AND HAPPINESS FOR A THOUSAND
 AGES.

                                              -- VOLTAIRE
 Job cpu time:       0 days  0 hours  1 minutes  5.9 seconds.
 File lengths (MBytes):  RWF=      5 Int=      0 D2E=      0 Chk=      1 Scr=      1
 Normal termination of Gaussian 09 at Sat Feb 16 12:58:53 2019.
