 Entering Gaussian System, Link 0=g09
 Initial command:
 /cm/shared/c3ddb/gaussian/09.d01/g09/l1.exe "/scratch/users/duminda/g09/a1702-7322642/Gau-11361.inp" -scrdir="/scratch/users/duminda/g09/a1702-7322642/"
 Entering Link 1 = /cm/shared/c3ddb/gaussian/09.d01/g09/l1.exe PID=     11362.
  
 Copyright (c) 1988,1990,1992,1993,1995,1998,2003,2009,2013,
            Gaussian, Inc.  All Rights Reserved.
  
 This is part of the Gaussian(R) 09 program.  It is based on
 the Gaussian(R) 03 system (copyright 2003, Gaussian, Inc.),
 the Gaussian(R) 98 system (copyright 1998, Gaussian, Inc.),
 the Gaussian(R) 94 system (copyright 1995, Gaussian, Inc.),
 the Gaussian 92(TM) system (copyright 1992, Gaussian, Inc.),
 the Gaussian 90(TM) system (copyright 1990, Gaussian, Inc.),
 the Gaussian 88(TM) system (copyright 1988, Gaussian, Inc.),
 the Gaussian 86(TM) system (copyright 1986, Carnegie Mellon
 University), and the Gaussian 82(TM) system (copyright 1983,
 Carnegie Mellon University). Gaussian is a federally registered
 trademark of Gaussian, Inc.
  
 This software contains proprietary and confidential information,
 including trade secrets, belonging to Gaussian, Inc.
  
 This software is provided under written license and may be
 used, copied, transmitted, or stored only in accord with that
 written license.
  
 The following legend is applicable only to US Government
 contracts under FAR:
  
                    RESTRICTED RIGHTS LEGEND
  
 Use, reproduction and disclosure by the US Government is
 subject to restrictions as set forth in subparagraphs (a)
 and (c) of the Commercial Computer Software - Restricted
 Rights clause in FAR 52.227-19.
  
 Gaussian, Inc.
 340 Quinnipiac St., Bldg. 40, Wallingford CT 06492
  
  
 ---------------------------------------------------------------
 Warning -- This program may not be used in any manner that
 competes with the business of Gaussian, Inc. or will provide
 assistance to any competitor of Gaussian, Inc.  The licensee
 of this program is prohibited from giving any competitor of
 Gaussian, Inc. access to this program.  By using this program,
 the user acknowledges that Gaussian, Inc. is engaged in the
 business of creating and licensing software in the field of
 computational chemistry and represents and warrants to the
 licensee that it is not a competitor of Gaussian, Inc. and that
 it will not use this program in any manner prohibited above.
 ---------------------------------------------------------------
  

 Cite this work as:
 Gaussian 09, Revision D.01,
 M. J. Frisch, G. W. Trucks, H. B. Schlegel, G. E. Scuseria, 
 M. A. Robb, J. R. Cheeseman, G. Scalmani, V. Barone, B. Mennucci, 
 G. A. Petersson, H. Nakatsuji, M. Caricato, X. Li, H. P. Hratchian, 
 A. F. Izmaylov, J. Bloino, G. Zheng, J. L. Sonnenberg, M. Hada, 
 M. Ehara, K. Toyota, R. Fukuda, J. Hasegawa, M. Ishida, T. Nakajima, 
 Y. Honda, O. Kitao, H. Nakai, T. Vreven, J. A. Montgomery, Jr., 
 J. E. Peralta, F. Ogliaro, M. Bearpark, J. J. Heyd, E. Brothers, 
 K. N. Kudin, V. N. Staroverov, T. Keith, R. Kobayashi, J. Normand, 
 K. Raghavachari, A. Rendell, J. C. Burant, S. S. Iyengar, J. Tomasi, 
 M. Cossi, N. Rega, J. M. Millam, M. Klene, J. E. Knox, J. B. Cross, 
 V. Bakken, C. Adamo, J. Jaramillo, R. Gomperts, R. E. Stratmann, 
 O. Yazyev, A. J. Austin, R. Cammi, C. Pomelli, J. W. Ochterski, 
 R. L. Martin, K. Morokuma, V. G. Zakrzewski, G. A. Voth, 
 P. Salvador, J. J. Dannenberg, S. Dapprich, A. D. Daniels, 
 O. Farkas, J. B. Foresman, J. V. Ortiz, J. Cioslowski, 
 and D. J. Fox, Gaussian, Inc., Wallingford CT, 2013.
 
 ******************************************
 Gaussian 09:  AS64L-G09RevD.01 24-Apr-2013
                16-Feb-2019 
 ******************************************
 %chk=check.chk
 %mem=1500mb
 %nproc=8
 Will use up to    8 processors via shared memory.
 ------------------------------------------------
 #P opt=(ts, noeigentest, calcfc) cbs-qb3 scf=xqc
 ------------------------------------------------
 1/5=1,10=4,11=1,14=-1,18=20,26=3,38=1/1,3;
 2/9=110,12=2,17=6,18=5,40=1/2;
 3/5=4,6=6,7=700,11=2,16=1,25=1,30=1,71=2,74=-5,140=1/1,2,3;
 4//1;
 5/5=2,8=3,13=1,38=5/2,8;
 8/6=4,10=90,11=11/1;
 11/6=1,8=1,9=11,15=111,16=1/1,2,10;
 10/6=1,13=1/2;
 6/7=2,8=2,9=2,10=2,28=1/1;
 7/10=1,18=20,25=1/1,2,3,16;
 1/5=1,10=4,11=1,14=-1,18=20,26=3/3(2);
 2/9=110/2;
 99//99;
 2/9=110/2;
 3/5=4,6=6,7=700,11=2,16=1,25=1,30=1,71=1,74=-5/1,2,3;
 4/5=5,16=3,69=1/1;
 5/5=2,8=3,13=1,38=5/2,8;
 7//1,2,3,16;
 1/5=1,11=1,14=-1,18=20,26=3/3(-5);
 2/9=110/2;
 6/7=2,8=2,9=2,10=2,19=2,28=1/1;
 99/9=1/99;
 Leave Link    1 at Sat Feb 16 17:23:44 2019, MaxMem=   196608000 cpu:         0.8
 (Enter /cm/shared/c3ddb/gaussian/09.d01/g09/l101.exe)
 ----
 name
 ----
 Symbolic Z-matrix:
 Charge =  0 Multiplicity = 3
 N                    -0.44652   0.68301  -0.09326 
 H                    -0.45738   1.14833   0.81049 
 H                     0.67736   0.38206  -0.2197 
 N                    -1.2239   -0.46957  -0.00699 
 H                    -1.80394  -0.5112    0.81669 
 H                    -1.78372  -0.56858  -0.84052 
 N                     1.9039   -0.15683  -0.07662 
 H                     1.73331  -0.84686   0.67117 
 
 Add virtual bond connecting atoms N7         and H3         Dist= 2.55D+00.
 NAtoms=      8 NQM=        8 NQMF=       0 NMMI=      0 NMMIF=      0
                NMic=       0 NMicF=      0.
                    Isotopes and Nuclear Properties:
 (Nuclear quadrupole moments (NQMom) in fm**2, nuclear magnetic moments (NMagM)
  in nuclear magnetons)

  Atom         1           2           3           4           5           6           7           8
 IAtWgt=          14           1           1          14           1           1          14           1
 AtmWgt=  14.0030740   1.0078250   1.0078250  14.0030740   1.0078250   1.0078250  14.0030740   1.0078250
 NucSpn=           2           1           1           2           1           1           2           1
 AtZEff=   0.0000000   0.0000000   0.0000000   0.0000000   0.0000000   0.0000000   0.0000000   0.0000000
 NQMom=    2.0440000   0.0000000   0.0000000   2.0440000   0.0000000   0.0000000   2.0440000   0.0000000
 NMagM=    0.4037610   2.7928460   2.7928460   0.4037610   2.7928460   2.7928460   0.4037610   2.7928460
 AtZNuc=   7.0000000   1.0000000   1.0000000   7.0000000   1.0000000   1.0000000   7.0000000   1.0000000
 Leave Link  101 at Sat Feb 16 17:23:44 2019, MaxMem=   196608000 cpu:         0.9
 (Enter /cm/shared/c3ddb/gaussian/09.d01/g09/l103.exe)

 GradGradGradGradGradGradGradGradGradGradGradGradGradGradGradGradGradGrad
 Berny optimization.
 Initialization pass.
                           ----------------------------
                           !    Initial Parameters    !
                           ! (Angstroms and Degrees)  !
 --------------------------                            --------------------------
 ! Name  Definition              Value          Derivative Info.                !
 --------------------------------------------------------------------------------
 ! R1    R(1,2)                  1.0166         calculate D2E/DX2 analytically  !
 ! R2    R(1,3)                  1.1703         calculate D2E/DX2 analytically  !
 ! R3    R(1,4)                  1.3929         calculate D2E/DX2 analytically  !
 ! R4    R(3,7)                  1.3473         calculate D2E/DX2 analytically  !
 ! R5    R(4,5)                  1.0083         calculate D2E/DX2 analytically  !
 ! R6    R(4,6)                  1.0089         calculate D2E/DX2 analytically  !
 ! R7    R(7,8)                  1.0317         calculate D2E/DX2 analytically  !
 ! A1    A(2,1,3)              102.945          calculate D2E/DX2 analytically  !
 ! A2    A(2,1,4)              108.526          calculate D2E/DX2 analytically  !
 ! A3    A(3,1,4)              109.2605         calculate D2E/DX2 analytically  !
 ! A4    A(1,3,7)              164.9291         calculate D2E/DX2 analytically  !
 ! A5    A(1,4,5)              113.9428         calculate D2E/DX2 analytically  !
 ! A6    A(1,4,6)              109.8585         calculate D2E/DX2 analytically  !
 ! A7    A(5,4,6)              110.5875         calculate D2E/DX2 analytically  !
 ! A8    A(3,7,8)              101.1837         calculate D2E/DX2 analytically  !
 ! D1    D(2,1,3,7)             62.2719         calculate D2E/DX2 analytically  !
 ! D2    D(4,1,3,7)            -52.9211         calculate D2E/DX2 analytically  !
 ! D3    D(2,1,4,5)             13.5558         calculate D2E/DX2 analytically  !
 ! D4    D(2,1,4,6)            138.2673         calculate D2E/DX2 analytically  !
 ! D5    D(3,1,4,5)            125.1086         calculate D2E/DX2 analytically  !
 ! D6    D(3,1,4,6)           -110.18           calculate D2E/DX2 analytically  !
 ! D7    D(1,3,7,8)              8.3213         calculate D2E/DX2 analytically  !
 --------------------------------------------------------------------------------
 Trust Radius=3.00D-01 FncErr=1.00D-07 GrdErr=1.00D-06
 Number of steps in this run=     32 maximum allowed number of steps=    100.
 Search for a saddle point of order  1.
 GradGradGradGradGradGradGradGradGradGradGradGradGradGradGradGradGradGrad

 Leave Link  103 at Sat Feb 16 17:23:44 2019, MaxMem=   196608000 cpu:         0.1
 (Enter /cm/shared/c3ddb/gaussian/09.d01/g09/l202.exe)
                          Input orientation:                          
 ---------------------------------------------------------------------
 Center     Atomic      Atomic             Coordinates (Angstroms)
 Number     Number       Type             X           Y           Z
 ---------------------------------------------------------------------
      1          7           0       -0.446519    0.683009   -0.093262
      2          1           0       -0.457383    1.148334    0.810489
      3          1           0        0.677360    0.382064   -0.219700
      4          7           0       -1.223901   -0.469570   -0.006989
      5          1           0       -1.803936   -0.511202    0.816687
      6          1           0       -1.783722   -0.568580   -0.840515
      7          7           0        1.903902   -0.156834   -0.076625
      8          1           0        1.733313   -0.846857    0.671170
 ---------------------------------------------------------------------
                    Distance matrix (angstroms):
                    1          2          3          4          5
     1  N    0.000000
     2  H    1.016568   0.000000
     3  H    1.170324   1.713505   0.000000
     4  N    1.392912   1.968104   2.094116   0.000000
     5  H    2.024037   2.137125   2.833523   1.008274   0.000000
     6  H    1.978124   2.726314   2.710362   1.008944   1.658319
     7  N    2.496015   2.840088   1.347326   3.144170   3.830358
     8  H    2.770653   2.966369   1.849036   3.057346   3.556117
                    6          7          8
     6  H    0.000000
     7  N    3.788355   0.000000
     8  H    3.838250   1.031712   0.000000
 Stoichiometry    H5N3(3)
 Framework group  C1[X(H5N3)]
 Deg. of freedom    18
 Full point group                 C1      NOp   1
 Largest Abelian subgroup         C1      NOp   1
 Largest concise Abelian subgroup C1      NOp   1
                         Standard orientation:                         
 ---------------------------------------------------------------------
 Center     Atomic      Atomic             Coordinates (Angstroms)
 Number     Number       Type             X           Y           Z
 ---------------------------------------------------------------------
      1          7           0       -0.446519    0.683009   -0.093262
      2          1           0       -0.457383    1.148334    0.810489
      3          1           0        0.677360    0.382064   -0.219700
      4          7           0       -1.223901   -0.469570   -0.006989
      5          1           0       -1.803936   -0.511202    0.816687
      6          1           0       -1.783722   -0.568580   -0.840515
      7          7           0        1.903902   -0.156834   -0.076625
      8          1           0        1.733313   -0.846857    0.671170
 ---------------------------------------------------------------------
 Rotational constants (GHZ):     32.6780684      5.7843987      5.1874906
 Leave Link  202 at Sat Feb 16 17:23:44 2019, MaxMem=   196608000 cpu:         0.3
 (Enter /cm/shared/c3ddb/gaussian/09.d01/g09/l301.exe)
 Standard basis: 6-311G(2d,d,p) (5D, 7F)
 Ernie: Thresh=  0.10000D-02 Tol=  0.10000D-05 Strict=F.
 There are    87 symmetry adapted cartesian basis functions of A   symmetry.
 There are    84 symmetry adapted basis functions of A   symmetry.
    84 basis functions,   136 primitive gaussians,    87 cartesian basis functions
    14 alpha electrons       12 beta electrons
       nuclear repulsion energy        73.0990903798 Hartrees.
 IExCor=  402 DFT=T Ex+Corr=B3LYP ExCW=0 ScaHFX=  0.200000
 ScaDFX=  0.800000  0.720000  1.000000  0.810000 ScalE2=  1.000000  1.000000
 IRadAn=      0 IRanWt=     -1 IRanGd=            0 ICorTp=0 IEmpDi=  4
 NAtoms=    8 NActive=    8 NUniq=    8 SFac= 1.00D+00 NAtFMM=   60 NAOKFM=F Big=F
 Integral buffers will be    131072 words long.
 Raffenetti 2 integral format.
 Two-electron integral symmetry is turned on.
 Leave Link  301 at Sat Feb 16 17:23:44 2019, MaxMem=   196608000 cpu:         1.0
 (Enter /cm/shared/c3ddb/gaussian/09.d01/g09/l302.exe)
 NPDir=0 NMtPBC=     1 NCelOv=     1 NCel=       1 NClECP=     1 NCelD=      1
         NCelK=      1 NCelE2=     1 NClLst=     1 CellRange=     0.0.
 One-electron integrals computed using PRISM.
 NBasis=    84 RedAO= T EigKep=  5.46D-03  NBF=    84
 NBsUse=    84 1.00D-06 EigRej= -1.00D+00 NBFU=    84
 Precomputing XC quadrature grid using
 IXCGrd= 4 IRadAn=           0 IRanWt=          -1 IRanGd=           0 AccXCQ= 0.00D+00.
 Generated NRdTot=       0 NPtTot=           0 NUsed=           0 NTot=          32
 NSgBfM=    87    87    87    87    87 MxSgAt=     8 MxSgA2=     8.
 Leave Link  302 at Sat Feb 16 17:23:45 2019, MaxMem=   196608000 cpu:         4.3
 (Enter /cm/shared/c3ddb/gaussian/09.d01/g09/l303.exe)
 DipDrv:  MaxL=1.
 Leave Link  303 at Sat Feb 16 17:23:45 2019, MaxMem=   196608000 cpu:         1.8
 (Enter /cm/shared/c3ddb/gaussian/09.d01/g09/l401.exe)
 ExpMin= 1.03D-01 ExpMax= 6.29D+03 ExpMxC= 9.49D+02 IAcc=1 IRadAn=         1 AccDes= 0.00D+00
 Harris functional with IExCor=  402 and IRadAn=       1 diagonalized for initial guess.
 HarFok:  IExCor=  402 AccDes= 0.00D+00 IRadAn=         1 IDoV= 1 UseB2=F ITyADJ=14
 ICtDFT=  3500011 ScaDFX=  1.000000  1.000000  1.000000  1.000000
 FoFCou: FMM=F IPFlag=           0 FMFlag=      100000 FMFlg1=           0
         NFxFlg=           0 DoJE=T BraDBF=F KetDBF=T FulRan=T
         wScrn=  0.000000 ICntrl=     500 IOpCl=  0 I1Cent=   200000004 NGrid=           0
         NMat0=    1 NMatS0=      1 NMatT0=    0 NMatD0=    1 NMtDS0=    0 NMtDT0=    0
 Petite list used in FoFCou.
 Harris En= -167.084195857637    
 JPrj=0 DoOrth=F DoCkMO=F.
 Initial guess <Sx>= 0.0000 <Sy>= 0.0000 <Sz>= 1.0000 <S**2>= 2.0000 S= 1.0000
 Leave Link  401 at Sat Feb 16 17:23:47 2019, MaxMem=   196608000 cpu:         8.7
 (Enter /cm/shared/c3ddb/gaussian/09.d01/g09/l502.exe)
 UHF open shell SCF:
 Using DIIS extrapolation, IDIIS=  1040.
 Integral symmetry usage will be decided dynamically.
 Keep R1 and R2 ints in memory in canonical form, NReq=13685062.
 IVT=       30002 IEndB=       30002 NGot=   196608000 MDV=   183829529
 LenX=   183829529 LenY=   183821519
 Requested convergence on RMS density matrix=1.00D-08 within  64 cycles.
 Requested convergence on MAX density matrix=1.00D-06.
 Requested convergence on             energy=1.00D-06.
 No special actions if energy rises.
 FoFCou: FMM=F IPFlag=           0 FMFlag=           0 FMFlg1=           0
         NFxFlg=           0 DoJE=F BraDBF=F KetDBF=F FulRan=T
         wScrn=  0.000000 ICntrl=     600 IOpCl=  0 I1Cent=           0 NGrid=           0
         NMat0=    1 NMatS0=   3570 NMatT0=    0 NMatD0=    1 NMtDS0=    0 NMtDT0=    0
 Symmetry not used in FoFCou.
 Integral accuracy reduced to 1.0D-05 until final iterations.

 Cycle   1  Pass 0  IDiag  1:
 E= -167.060415811891    
 DIIS: error= 2.45D-02 at cycle   1 NSaved=   1.
 NSaved= 1 IEnMin= 1 EnMin= -167.060415811891     IErMin= 1 ErrMin= 2.45D-02
 ErrMax= 2.45D-02  0.00D+00 EMaxC= 1.00D-01 BMatC= 3.49D-01 BMatP= 3.49D-01
 IDIUse=3 WtCom= 7.55D-01 WtEn= 2.45D-01
 Coeff-Com:  0.100D+01
 Coeff-En:   0.100D+01
 Coeff:      0.100D+01
 Gap=     0.153 Goal=   None    Shift=    0.000
 Gap=     0.184 Goal=   None    Shift=    0.000
 GapD=    0.153 DampG=1.000 DampE=0.500 DampFc=0.5000 IDamp=-1.
 Damping current iteration by 5.00D-01
 RMSDP=5.74D-03 MaxDP=9.71D-02              OVMax= 3.01D-01

 Cycle   2  Pass 0  IDiag  1:
 E= -167.092451724499     Delta-E=       -0.032035912608 Rises=F Damp=T
 DIIS: error= 9.26D-03 at cycle   2 NSaved=   2.
 NSaved= 2 IEnMin= 2 EnMin= -167.092451724499     IErMin= 2 ErrMin= 9.26D-03
 ErrMax= 9.26D-03  0.00D+00 EMaxC= 1.00D-01 BMatC= 2.76D-02 BMatP= 3.49D-01
 IDIUse=3 WtCom= 9.07D-01 WtEn= 9.26D-02
 Coeff-Com:  0.203D-01 0.980D+00
 Coeff-En:   0.772D-01 0.923D+00
 Coeff:      0.255D-01 0.974D+00
 Gap=     0.252 Goal=   None    Shift=    0.000
 Gap=     0.128 Goal=   None    Shift=    0.000
 RMSDP=1.33D-03 MaxDP=3.32D-02 DE=-3.20D-02 OVMax= 1.85D-01

 Cycle   3  Pass 0  IDiag  1:
 E= -167.129096606432     Delta-E=       -0.036644881933 Rises=F Damp=F
 DIIS: error= 8.70D-03 at cycle   3 NSaved=   3.
 NSaved= 3 IEnMin= 3 EnMin= -167.129096606432     IErMin= 3 ErrMin= 8.70D-03
 ErrMax= 8.70D-03  0.00D+00 EMaxC= 1.00D-01 BMatC= 1.84D-02 BMatP= 2.76D-02
 IDIUse=3 WtCom= 9.13D-01 WtEn= 8.70D-02
 Coeff-Com: -0.426D-01 0.453D+00 0.589D+00
 Coeff-En:   0.000D+00 0.000D+00 0.100D+01
 Coeff:     -0.389D-01 0.414D+00 0.625D+00
 Gap=     0.237 Goal=   None    Shift=    0.000
 Gap=     0.129 Goal=   None    Shift=    0.000
 RMSDP=1.20D-03 MaxDP=2.10D-02 DE=-3.66D-02 OVMax= 1.35D-01

 Cycle   4  Pass 0  IDiag  1:
 E= -167.130069518192     Delta-E=       -0.000972911760 Rises=F Damp=F
 DIIS: error= 7.21D-03 at cycle   4 NSaved=   4.
 NSaved= 4 IEnMin= 4 EnMin= -167.130069518192     IErMin= 4 ErrMin= 7.21D-03
 ErrMax= 7.21D-03  0.00D+00 EMaxC= 1.00D-01 BMatC= 1.71D-02 BMatP= 1.84D-02
 IDIUse=3 WtCom= 9.28D-01 WtEn= 7.21D-02
 Coeff-Com: -0.384D-01 0.109D+00 0.497D+00 0.433D+00
 Coeff-En:   0.000D+00 0.000D+00 0.457D+00 0.543D+00
 Coeff:     -0.356D-01 0.101D+00 0.494D+00 0.441D+00
 Gap=     0.236 Goal=   None    Shift=    0.000
 Gap=     0.132 Goal=   None    Shift=    0.000
 RMSDP=5.93D-04 MaxDP=9.12D-03 DE=-9.73D-04 OVMax= 5.02D-02

 Cycle   5  Pass 0  IDiag  1:
 E= -167.134212004421     Delta-E=       -0.004142486229 Rises=F Damp=F
 DIIS: error= 6.18D-04 at cycle   5 NSaved=   5.
 NSaved= 5 IEnMin= 5 EnMin= -167.134212004421     IErMin= 5 ErrMin= 6.18D-04
 ErrMax= 6.18D-04  0.00D+00 EMaxC= 1.00D-01 BMatC= 1.55D-04 BMatP= 1.71D-02
 IDIUse=3 WtCom= 9.94D-01 WtEn= 6.18D-03
 Coeff-Com:  0.255D-02-0.386D-01 0.455D-01 0.580D-01 0.933D+00
 Coeff-En:   0.000D+00 0.000D+00 0.000D+00 0.000D+00 0.100D+01
 Coeff:      0.254D-02-0.384D-01 0.452D-01 0.576D-01 0.933D+00
 Gap=     0.234 Goal=   None    Shift=    0.000
 Gap=     0.134 Goal=   None    Shift=    0.000
 RMSDP=1.21D-04 MaxDP=1.82D-03 DE=-4.14D-03 OVMax= 1.13D-02

 Cycle   6  Pass 0  IDiag  1:
 E= -167.134286329381     Delta-E=       -0.000074324959 Rises=F Damp=F
 DIIS: error= 3.27D-04 at cycle   6 NSaved=   6.
 NSaved= 6 IEnMin= 6 EnMin= -167.134286329381     IErMin= 6 ErrMin= 3.27D-04
 ErrMax= 3.27D-04  0.00D+00 EMaxC= 1.00D-01 BMatC= 3.87D-05 BMatP= 1.55D-04
 IDIUse=3 WtCom= 9.97D-01 WtEn= 3.27D-03
 Coeff-Com:  0.589D-02-0.115D-01-0.496D-01-0.843D-01-0.150D-01 0.115D+01
 Coeff-En:   0.000D+00 0.000D+00 0.000D+00 0.000D+00 0.000D+00 0.100D+01
 Coeff:      0.587D-02-0.115D-01-0.494D-01-0.840D-01-0.150D-01 0.115D+01
 Gap=     0.234 Goal=   None    Shift=    0.000
 Gap=     0.134 Goal=   None    Shift=    0.000
 RMSDP=6.55D-05 MaxDP=1.27D-03 DE=-7.43D-05 OVMax= 3.65D-03

 Cycle   7  Pass 0  IDiag  1:
 E= -167.134301082823     Delta-E=       -0.000014753443 Rises=F Damp=F
 DIIS: error= 1.89D-04 at cycle   7 NSaved=   7.
 NSaved= 7 IEnMin= 7 EnMin= -167.134301082823     IErMin= 7 ErrMin= 1.89D-04
 ErrMax= 1.89D-04  0.00D+00 EMaxC= 1.00D-01 BMatC= 9.46D-06 BMatP= 3.87D-05
 IDIUse=3 WtCom= 9.98D-01 WtEn= 1.89D-03
 Coeff-Com:  0.331D-02-0.406D-02-0.278D-01-0.537D-01-0.504D-01 0.639D+00
 Coeff-Com:  0.493D+00
 Coeff-En:   0.000D+00 0.000D+00 0.000D+00 0.000D+00 0.000D+00 0.000D+00
 Coeff-En:   0.100D+01
 Coeff:      0.330D-02-0.405D-02-0.277D-01-0.536D-01-0.503D-01 0.638D+00
 Coeff:      0.494D+00
 Gap=     0.234 Goal=   None    Shift=    0.000
 Gap=     0.134 Goal=   None    Shift=    0.000
 RMSDP=1.28D-05 MaxDP=2.26D-04 DE=-1.48D-05 OVMax= 6.39D-04

 Cycle   8  Pass 0  IDiag  1:
 E= -167.134302895339     Delta-E=       -0.000001812516 Rises=F Damp=F
 DIIS: error= 6.21D-05 at cycle   8 NSaved=   8.
 NSaved= 8 IEnMin= 8 EnMin= -167.134302895339     IErMin= 8 ErrMin= 6.21D-05
 ErrMax= 6.21D-05  0.00D+00 EMaxC= 1.00D-01 BMatC= 1.35D-06 BMatP= 9.46D-06
 IDIUse=1 WtCom= 1.00D+00 WtEn= 0.00D+00
 Coeff-Com: -0.323D-03 0.131D-02 0.418D-02-0.115D-02-0.133D-01-0.980D-01
 Coeff-Com:  0.182D+00 0.925D+00
 Coeff:     -0.323D-03 0.131D-02 0.418D-02-0.115D-02-0.133D-01-0.980D-01
 Coeff:      0.182D+00 0.925D+00
 Gap=     0.234 Goal=   None    Shift=    0.000
 Gap=     0.134 Goal=   None    Shift=    0.000
 RMSDP=9.02D-06 MaxDP=1.72D-04 DE=-1.81D-06 OVMax= 4.00D-04

 Initial convergence to 1.0D-05 achieved.  Increase integral accuracy.
 Cycle   9  Pass 1  IDiag  1:
 E= -167.134307773975     Delta-E=       -0.000004878636 Rises=F Damp=F
 DIIS: error= 7.52D-06 at cycle   1 NSaved=   1.
 NSaved= 1 IEnMin= 1 EnMin= -167.134307773975     IErMin= 1 ErrMin= 7.52D-06
 ErrMax= 7.52D-06  0.00D+00 EMaxC= 1.00D-01 BMatC= 3.23D-08 BMatP= 3.23D-08
 IDIUse=1 WtCom= 1.00D+00 WtEn= 0.00D+00
 Coeff-Com:  0.100D+01
 Coeff:      0.100D+01
 Gap=     0.234 Goal=   None    Shift=    0.000
 Gap=     0.134 Goal=   None    Shift=    0.000
 RMSDP=9.02D-06 MaxDP=1.72D-04 DE=-4.88D-06 OVMax= 1.58D-04

 Cycle  10  Pass 1  IDiag  1:
 E= -167.134307780518     Delta-E=       -0.000000006543 Rises=F Damp=F
 DIIS: error= 9.57D-06 at cycle   2 NSaved=   2.
 NSaved= 2 IEnMin= 2 EnMin= -167.134307780518     IErMin= 1 ErrMin= 7.52D-06
 ErrMax= 9.57D-06  0.00D+00 EMaxC= 1.00D-01 BMatC= 3.63D-08 BMatP= 3.23D-08
 IDIUse=1 WtCom= 1.00D+00 WtEn= 0.00D+00
 Coeff-Com:  0.520D+00 0.480D+00
 Coeff:      0.520D+00 0.480D+00
 Gap=     0.234 Goal=   None    Shift=    0.000
 Gap=     0.134 Goal=   None    Shift=    0.000
 RMSDP=9.34D-07 MaxDP=1.93D-05 DE=-6.54D-09 OVMax= 5.89D-05

 Cycle  11  Pass 1  IDiag  1:
 E= -167.134307787641     Delta-E=       -0.000000007123 Rises=F Damp=F
 DIIS: error= 3.60D-06 at cycle   3 NSaved=   3.
 NSaved= 3 IEnMin= 3 EnMin= -167.134307787641     IErMin= 3 ErrMin= 3.60D-06
 ErrMax= 3.60D-06  0.00D+00 EMaxC= 1.00D-01 BMatC= 4.66D-09 BMatP= 3.23D-08
 IDIUse=1 WtCom= 1.00D+00 WtEn= 0.00D+00
 Coeff-Com:  0.368D-02 0.239D+00 0.757D+00
 Coeff:      0.368D-02 0.239D+00 0.757D+00
 Gap=     0.234 Goal=   None    Shift=    0.000
 Gap=     0.134 Goal=   None    Shift=    0.000
 RMSDP=5.14D-07 MaxDP=8.04D-06 DE=-7.12D-09 OVMax= 5.65D-05

 Cycle  12  Pass 1  IDiag  1:
 E= -167.134307788983     Delta-E=       -0.000000001342 Rises=F Damp=F
 DIIS: error= 1.84D-06 at cycle   4 NSaved=   4.
 NSaved= 4 IEnMin= 4 EnMin= -167.134307788983     IErMin= 4 ErrMin= 1.84D-06
 ErrMax= 1.84D-06  0.00D+00 EMaxC= 1.00D-01 BMatC= 1.41D-09 BMatP= 4.66D-09
 IDIUse=1 WtCom= 1.00D+00 WtEn= 0.00D+00
 Coeff-Com: -0.845D-01 0.617D-01 0.438D+00 0.585D+00
 Coeff:     -0.845D-01 0.617D-01 0.438D+00 0.585D+00
 Gap=     0.234 Goal=   None    Shift=    0.000
 Gap=     0.134 Goal=   None    Shift=    0.000
 RMSDP=2.73D-07 MaxDP=4.07D-06 DE=-1.34D-09 OVMax= 1.10D-05

 Cycle  13  Pass 1  IDiag  1:
 E= -167.134307789293     Delta-E=       -0.000000000311 Rises=F Damp=F
 DIIS: error= 1.14D-06 at cycle   5 NSaved=   5.
 NSaved= 5 IEnMin= 5 EnMin= -167.134307789293     IErMin= 5 ErrMin= 1.14D-06
 ErrMax= 1.14D-06  0.00D+00 EMaxC= 1.00D-01 BMatC= 3.60D-10 BMatP= 1.41D-09
 IDIUse=1 WtCom= 1.00D+00 WtEn= 0.00D+00
 Coeff-Com: -0.497D-01-0.370D-01 0.493D-01 0.391D+00 0.646D+00
 Coeff:     -0.497D-01-0.370D-01 0.493D-01 0.391D+00 0.646D+00
 Gap=     0.234 Goal=   None    Shift=    0.000
 Gap=     0.134 Goal=   None    Shift=    0.000
 RMSDP=1.50D-07 MaxDP=3.15D-06 DE=-3.11D-10 OVMax= 1.71D-05

 Cycle  14  Pass 1  IDiag  1:
 E= -167.134307789420     Delta-E=       -0.000000000127 Rises=F Damp=F
 DIIS: error= 3.49D-07 at cycle   6 NSaved=   6.
 NSaved= 6 IEnMin= 6 EnMin= -167.134307789420     IErMin= 6 ErrMin= 3.49D-07
 ErrMax= 3.49D-07  0.00D+00 EMaxC= 1.00D-01 BMatC= 3.79D-11 BMatP= 3.60D-10
 IDIUse=1 WtCom= 1.00D+00 WtEn= 0.00D+00
 Coeff-Com:  0.311D-02-0.200D-01-0.493D-01-0.546D-01 0.207D+00 0.914D+00
 Coeff:      0.311D-02-0.200D-01-0.493D-01-0.546D-01 0.207D+00 0.914D+00
 Gap=     0.234 Goal=   None    Shift=    0.000
 Gap=     0.134 Goal=   None    Shift=    0.000
 RMSDP=5.12D-08 MaxDP=6.94D-07 DE=-1.27D-10 OVMax= 2.79D-06

 Cycle  15  Pass 1  IDiag  1:
 E= -167.134307789432     Delta-E=       -0.000000000012 Rises=F Damp=F
 DIIS: error= 1.38D-07 at cycle   7 NSaved=   7.
 NSaved= 7 IEnMin= 7 EnMin= -167.134307789432     IErMin= 7 ErrMin= 1.38D-07
 ErrMax= 1.38D-07  0.00D+00 EMaxC= 1.00D-01 BMatC= 4.01D-12 BMatP= 3.79D-11
 IDIUse=1 WtCom= 1.00D+00 WtEn= 0.00D+00
 Coeff-Com:  0.408D-02-0.846D-02-0.215D-01-0.565D-01 0.649D-01 0.367D+00
 Coeff-Com:  0.650D+00
 Coeff:      0.408D-02-0.846D-02-0.215D-01-0.565D-01 0.649D-01 0.367D+00
 Coeff:      0.650D+00
 Gap=     0.234 Goal=   None    Shift=    0.000
 Gap=     0.134 Goal=   None    Shift=    0.000
 RMSDP=1.30D-08 MaxDP=2.71D-07 DE=-1.19D-11 OVMax= 3.58D-07

 Cycle  16  Pass 1  IDiag  1:
 E= -167.134307789433     Delta-E=       -0.000000000001 Rises=F Damp=F
 DIIS: error= 3.64D-08 at cycle   8 NSaved=   8.
 NSaved= 8 IEnMin= 8 EnMin= -167.134307789433     IErMin= 8 ErrMin= 3.64D-08
 ErrMax= 3.64D-08  0.00D+00 EMaxC= 1.00D-01 BMatC= 4.13D-13 BMatP= 4.01D-12
 IDIUse=1 WtCom= 1.00D+00 WtEn= 0.00D+00
 Coeff-Com:  0.123D-02-0.589D-04 0.203D-02-0.138D-01-0.922D-02-0.432D-01
 Coeff-Com:  0.177D+00 0.886D+00
 Coeff:      0.123D-02-0.589D-04 0.203D-02-0.138D-01-0.922D-02-0.432D-01
 Coeff:      0.177D+00 0.886D+00
 Gap=     0.234 Goal=   None    Shift=    0.000
 Gap=     0.134 Goal=   None    Shift=    0.000
 RMSDP=5.07D-09 MaxDP=6.84D-08 DE=-1.08D-12 OVMax= 2.15D-07

 SCF Done:  E(UB3LYP) =  -167.134307789     A.U. after   16 cycles
            NFock= 16  Conv=0.51D-08     -V/T= 2.0024
 <Sx>= 0.0000 <Sy>= 0.0000 <Sz>= 1.0000 <S**2>= 2.0108 S= 1.0036
 <L.S>= 0.000000000000E+00
 KE= 1.667296141090D+02 PE=-5.377223161450D+02 EE= 1.307593038668D+02
 Annihilation of the first spin contaminant:
 S**2 before annihilation     2.0108,   after     2.0000
 Leave Link  502 at Sat Feb 16 17:23:52 2019, MaxMem=   196608000 cpu:        37.4
 (Enter /cm/shared/c3ddb/gaussian/09.d01/g09/l508.exe)
 QCSCF skips out because SCF is already converged.
 Leave Link  508 at Sat Feb 16 17:23:52 2019, MaxMem=   196608000 cpu:         0.0
 (Enter /cm/shared/c3ddb/gaussian/09.d01/g09/l801.exe)
 DoSCS=F DFT=T ScalE2(SS,OS)=  1.000000  1.000000
 Range of M.O.s used for correlation:     1    84
 NBasis=    84 NAE=    14 NBE=    12 NFC=     0 NFV=     0
 NROrb=     84 NOA=    14 NOB=    12 NVA=    70 NVB=    72
 Leave Link  801 at Sat Feb 16 17:23:52 2019, MaxMem=   196608000 cpu:         0.2
 (Enter /cm/shared/c3ddb/gaussian/09.d01/g09/l1101.exe)
 Using compressed storage, NAtomX=     8.
 Will process      9 centers per pass.
 Leave Link 1101 at Sat Feb 16 17:23:53 2019, MaxMem=   196608000 cpu:         5.7
 (Enter /cm/shared/c3ddb/gaussian/09.d01/g09/l1102.exe)
 Symmetrizing basis deriv contribution to polar:
 IMax=3 JMax=2 DiffMx= 0.00D+00
 Leave Link 1102 at Sat Feb 16 17:23:53 2019, MaxMem=   196608000 cpu:         0.6
 (Enter /cm/shared/c3ddb/gaussian/09.d01/g09/l1110.exe)
 Forming Gx(P) for the SCF density, NAtomX=     8.
 Integral derivatives from FoFJK, PRISM(SPDF).
 Do as many integral derivatives as possible in FoFJK.
 G2DrvN: MDV=     196607832.
 G2DrvN: will do     9 centers at a time, making    1 passes.
 Calling FoFCou, ICntrl=  3107 FMM=F I1Cent=   0 AccDes= 0.00D+00.
 FoFJK:  IHMeth= 1 ICntrl=    3107 DoSepK=F KAlg= 0 I1Cent=   0 FoldK=F
 IRaf=         0 NMat=   1 IRICut=       1 DoRegI=T DoRafI=F ISym2E= 0.
 FoFCou: FMM=F IPFlag=           0 FMFlag=      100000 FMFlg1=           0
         NFxFlg=           0 DoJE=F BraDBF=F KetDBF=F FulRan=T
         wScrn=  0.000000 ICntrl=    3107 IOpCl=  1 I1Cent=           0 NGrid=           0
         NMat0=    1 NMatS0=      1 NMatT0=    0 NMatD0=    1 NMtDS0=    0 NMtDT0=    0
 Symmetry not used in FoFCou.
 End of G2Drv F.D. properties file   721 does not exist.
 End of G2Drv F.D. properties file   722 does not exist.
 End of G2Drv F.D. properties file   788 does not exist.
 Leave Link 1110 at Sat Feb 16 17:24:01 2019, MaxMem=   196608000 cpu:        54.0
 (Enter /cm/shared/c3ddb/gaussian/09.d01/g09/l1002.exe)
 Minotr:  UHF open shell wavefunction.
          IDoAtm=11111111
          Direct CPHF calculation.
          Differentiating once with respect to nuclear coordinates.
          Requested convergence is 1.0D-08 RMS, and 1.0D-07 maximum.
          Secondary convergence is 1.0D-12 RMS, and 1.0D-12 maximum.
          NewPWx=T KeepS1=F KeepF1=F KeepIn=T MapXYZ=F SortEE=F KeepMc=T.
          MDV=     196607748 using IRadAn=       2.
 Generate precomputed XC quadrature information.
 Keep R1 and R2 ints in memory in canonical form, NReq=13656293.
 FoFCou: FMM=F IPFlag=           0 FMFlag=           0 FMFlg1=           0
         NFxFlg=           0 DoJE=F BraDBF=F KetDBF=F FulRan=T
         wScrn=  0.000000 ICntrl=     600 IOpCl=  0 I1Cent=           0 NGrid=           0
         NMat0=    1 NMatS0=   3570 NMatT0=    0 NMatD0=    1 NMtDS0=    0 NMtDT0=    0
 Symmetry not used in FoFCou.
          Solving linear equations simultaneously, MaxMat=       0.
          There are    27 degrees of freedom in the 1st order CPHF.  IDoFFX=6 NUNeed=     0.
     21 vectors produced by pass  0 Test12= 6.83D-15 3.70D-09 XBig12= 3.60D-01 3.91D-01.
 AX will form    21 AO Fock derivatives at one time.
     21 vectors produced by pass  1 Test12= 6.83D-15 3.70D-09 XBig12= 6.45D-02 5.22D-02.
     21 vectors produced by pass  2 Test12= 6.83D-15 3.70D-09 XBig12= 1.87D-03 7.69D-03.
     21 vectors produced by pass  3 Test12= 6.83D-15 3.70D-09 XBig12= 1.98D-05 7.22D-04.
     21 vectors produced by pass  4 Test12= 6.83D-15 3.70D-09 XBig12= 1.54D-07 7.02D-05.
     21 vectors produced by pass  5 Test12= 6.83D-15 3.70D-09 XBig12= 1.10D-09 4.65D-06.
     16 vectors produced by pass  6 Test12= 6.83D-15 3.70D-09 XBig12= 3.84D-12 2.67D-07.
      2 vectors produced by pass  7 Test12= 6.83D-15 3.70D-09 XBig12= 1.14D-14 1.51D-08.
 InvSVY:  IOpt=1 It=  1 EMax= 1.78D-15
 Solved reduced A of dimension   144 with    21 vectors.
 End of Minotr F.D. properties file   721 does not exist.
 End of Minotr F.D. properties file   722 does not exist.
 End of Minotr F.D. properties file   788 does not exist.
 Leave Link 1002 at Sat Feb 16 17:24:09 2019, MaxMem=   196608000 cpu:        60.9
 (Enter /cm/shared/c3ddb/gaussian/09.d01/g09/l601.exe)
 Copying SCF densities to generalized density rwf, IOpCl= 1 IROHF=0.

 **********************************************************************

            Population analysis using the SCF density.

 **********************************************************************

 Orbital symmetries:
 Alpha Orbitals:
       Occupied  (A) (A) (A) (A) (A) (A) (A) (A) (A) (A) (A) (A)
                 (A) (A)
       Virtual   (A) (A) (A) (A) (A) (A) (A) (A) (A) (A) (A) (A)
                 (A) (A) (A) (A) (A) (A) (A) (A) (A) (A) (A) (A)
                 (A) (A) (A) (A) (A) (A) (A) (A) (A) (A) (A) (A)
                 (A) (A) (A) (A) (A) (A) (A) (A) (A) (A) (A) (A)
                 (A) (A) (A) (A) (A) (A) (A) (A) (A) (A) (A) (A)
                 (A) (A) (A) (A) (A) (A) (A) (A) (A) (A)
 Beta  Orbitals:
       Occupied  (A) (A) (A) (A) (A) (A) (A) (A) (A) (A) (A) (A)
       Virtual   (A) (A) (A) (A) (A) (A) (A) (A) (A) (A) (A) (A)
                 (A) (A) (A) (A) (A) (A) (A) (A) (A) (A) (A) (A)
                 (A) (A) (A) (A) (A) (A) (A) (A) (A) (A) (A) (A)
                 (A) (A) (A) (A) (A) (A) (A) (A) (A) (A) (A) (A)
                 (A) (A) (A) (A) (A) (A) (A) (A) (A) (A) (A) (A)
                 (A) (A) (A) (A) (A) (A) (A) (A) (A) (A) (A) (A)
 The electronic state is 3-A.
 Alpha  occ. eigenvalues --  -14.34491 -14.34061 -14.32200  -0.98754  -0.81635
 Alpha  occ. eigenvalues --   -0.75817  -0.55082  -0.49484  -0.47891  -0.37026
 Alpha  occ. eigenvalues --   -0.33145  -0.29392  -0.28523  -0.21377
 Alpha virt. eigenvalues --    0.02021   0.05919   0.08066   0.10347   0.20528
 Alpha virt. eigenvalues --    0.24872   0.32814   0.36886   0.39106   0.42245
 Alpha virt. eigenvalues --    0.44170   0.52138   0.54810   0.59098   0.65000
 Alpha virt. eigenvalues --    0.65989   0.69389   0.71344   0.73312   0.74600
 Alpha virt. eigenvalues --    0.92214   1.03586   1.04181   1.11380   1.17503
 Alpha virt. eigenvalues --    1.27973   1.32608   1.40536   1.46987   1.53712
 Alpha virt. eigenvalues --    1.58450   1.65492   1.68590   1.73693   1.76577
 Alpha virt. eigenvalues --    1.83257   1.87320   1.91185   2.04441   2.15791
 Alpha virt. eigenvalues --    2.23089   2.25616   2.31919   2.33191   2.34293
 Alpha virt. eigenvalues --    2.40489   2.45525   2.49270   2.58048   2.65481
 Alpha virt. eigenvalues --    2.72685   2.75806   2.80217   2.85108   2.94516
 Alpha virt. eigenvalues --    3.01828   3.05821   3.16835   3.62126   3.69583
 Alpha virt. eigenvalues --    3.81687   3.96238   4.07904   4.35700   4.70438
 Alpha virt. eigenvalues --    4.86000   5.23100  35.36069  35.43601  35.48733
  Beta  occ. eigenvalues --  -14.34229 -14.33092 -14.29118  -0.97454  -0.76360
  Beta  occ. eigenvalues --   -0.71285  -0.54659  -0.48717  -0.45135  -0.33695
  Beta  occ. eigenvalues --   -0.31089  -0.22408
  Beta virt. eigenvalues --   -0.09013  -0.07764   0.02246   0.06400   0.08923
  Beta virt. eigenvalues --    0.10698   0.21314   0.25707   0.33643   0.37607
  Beta virt. eigenvalues --    0.39692   0.43712   0.44999   0.54193   0.57865
  Beta virt. eigenvalues --    0.62358   0.67672   0.69010   0.70860   0.72449
  Beta virt. eigenvalues --    0.75265   0.76318   0.94177   1.04800   1.06340
  Beta virt. eigenvalues --    1.12190   1.19284   1.30156   1.34113   1.40780
  Beta virt. eigenvalues --    1.47882   1.55056   1.58721   1.65735   1.70131
  Beta virt. eigenvalues --    1.74540   1.77373   1.84397   1.90353   1.92966
  Beta virt. eigenvalues --    2.11586   2.17321   2.24860   2.27207   2.32504
  Beta virt. eigenvalues --    2.35316   2.39587   2.41020   2.48192   2.52167
  Beta virt. eigenvalues --    2.59744   2.65336   2.74000   2.76936   2.82950
  Beta virt. eigenvalues --    2.86145   2.96824   3.02462   3.08694   3.17899
  Beta virt. eigenvalues --    3.69856   3.73247   3.84646   4.01004   4.09854
  Beta virt. eigenvalues --    4.37857   4.71203   4.88047   5.24045  35.39275
  Beta virt. eigenvalues --   35.44597  35.49039
          Condensed to atoms (all electrons):
               1          2          3          4          5          6
     1  N    6.675340   0.342813   0.248349   0.224789  -0.033896  -0.050142
     2  H    0.342813   0.535153  -0.033433  -0.037740  -0.020996   0.007860
     3  H    0.248349  -0.033433   0.417464  -0.032240   0.006105  -0.002936
     4  N    0.224789  -0.037740  -0.032240   6.448615   0.374850   0.376777
     5  H   -0.033896  -0.020996   0.006105   0.374850   0.508385  -0.042378
     6  H   -0.050142   0.007860  -0.002936   0.376777  -0.042378   0.477061
     7  N   -0.086607   0.010766   0.195003  -0.000837  -0.000699   0.000562
     8  H    0.014180   0.001200  -0.047671   0.003058   0.000081   0.000327
               7          8
     1  N   -0.086607   0.014180
     2  H    0.010766   0.001200
     3  H    0.195003  -0.047671
     4  N   -0.000837   0.003058
     5  H   -0.000699   0.000081
     6  H    0.000562   0.000327
     7  N    6.971918   0.266019
     8  H    0.266019   0.599734
          Atomic-Atomic Spin Densities.
               1          2          3          4          5          6
     1  N    0.544430  -0.002656   0.016348  -0.087176   0.000232  -0.002803
     2  H   -0.002656  -0.009001   0.000930   0.001868  -0.000273  -0.001404
     3  H    0.016348   0.000930  -0.060162   0.004828   0.000013  -0.000782
     4  N   -0.087176   0.001868   0.004828   0.182478  -0.001741  -0.001248
     5  H    0.000232  -0.000273   0.000013  -0.001741  -0.001795   0.002107
     6  H   -0.002803  -0.001404  -0.000782  -0.001248   0.002107   0.011310
     7  N   -0.070619   0.005882  -0.019833   0.013577  -0.000148  -0.000402
     8  H    0.001887  -0.000505   0.006057  -0.002004   0.000008   0.000055
               7          8
     1  N   -0.070619   0.001887
     2  H    0.005882  -0.000505
     3  H   -0.019833   0.006057
     4  N    0.013577  -0.002004
     5  H   -0.000148   0.000008
     6  H   -0.000402   0.000055
     7  N    1.657062   0.001054
     8  H    0.001054  -0.050822
 Mulliken charges and spin densities:
               1          2
     1  N   -0.334826   0.399643
     2  H    0.194378  -0.005159
     3  H    0.249359  -0.052601
     4  N   -0.357272   0.110581
     5  H    0.208549  -0.001597
     6  H    0.232868   0.006833
     7  N   -0.356126   1.586573
     8  H    0.163072  -0.044271
 Sum of Mulliken charges =   0.00000   2.00000
 Mulliken charges and spin densities with hydrogens summed into heavy atoms:
               1          2
     1  N    0.108910   0.341882
     4  N    0.084144   0.115817
     7  N   -0.193054   1.542301
 APT charges:
               1
     1  N   -0.489302
     2  H    0.406716
     3  H    0.144781
     4  N   -1.008350
     5  H    0.518310
     6  H    0.546480
     7  N   -0.408554
     8  H    0.289919
 Sum of APT charges =   0.00000
 APT charges with hydrogens summed into heavy atoms:
               1
     1  N    0.062196
     4  N    0.056439
     7  N   -0.118635
 Electronic spatial extent (au):  <R**2>=            249.5059
 Charge=              0.0000 electrons
 Dipole moment (field-independent basis, Debye):
    X=             -3.2424    Y=             -0.5532    Z=              2.2097  Tot=              3.9625
 Quadrupole moment (field-independent basis, Debye-Ang):
   XX=            -20.4076   YY=            -20.3299   ZZ=            -17.5083
   XY=              0.2234   XZ=              1.4849   YZ=              1.4646
 Traceless Quadrupole moment (field-independent basis, Debye-Ang):
   XX=             -0.9923   YY=             -0.9147   ZZ=              1.9069
   XY=              0.2234   XZ=              1.4849   YZ=              1.4646
 Octapole moment (field-independent basis, Debye-Ang**2):
  XXX=            -26.0006  YYY=              0.3357  ZZZ=              2.3379  XYY=              0.4562
  XXY=             -4.9914  XXZ=              4.9647  XZZ=             -4.5731  YZZ=             -1.0188
  YYZ=              2.9068  XYZ=             -2.0620
 Hexadecapole moment (field-independent basis, Debye-Ang**3):
 XXXX=           -252.9779 YYYY=            -53.9364 ZZZZ=            -24.6881 XXXY=              4.7442
 XXXZ=             10.1433 YYYX=             -0.4772 YYYZ=              3.0074 ZZZX=              1.4620
 ZZZY=              1.9106 XXYY=            -45.9858 XXZZ=            -37.5795 YYZZ=            -12.0190
 XXYZ=             -0.4592 YYXZ=              0.2319 ZZXY=              1.1663
 N-N= 7.309909037982D+01 E-N=-5.377223136790D+02  KE= 1.667296141090D+02
  Exact polarizability:   0.000   0.000   0.000   0.000   0.000   0.000
 Approx polarizability:  98.454  -5.414  32.753  -0.509  -1.455  29.632
                          Isotropic Fermi Contact Couplings
        Atom                 a.u.       MegaHertz       Gauss      10(-4) cm-1
     1  N(14)              0.01403       2.26594       0.80854       0.75584
     2  H(1)              -0.00530     -11.84548      -4.22676      -3.95123
     3  H(1)              -0.02750     -61.46711     -21.93299     -20.50322
     4  N(14)              0.05098       8.23649       2.93898       2.74740
     5  H(1)               0.00010       0.22981       0.08200       0.07666
     6  H(1)               0.00587      13.12576       4.68360       4.37828
     7  N(14)              0.05833       9.42389       3.36268       3.14347
     8  H(1)              -0.01987     -44.40364     -15.84432     -14.81146
 --------------------------------------------------------
       Center         ----  Spin Dipole Couplings  ----
                      3XX-RR        3YY-RR        3ZZ-RR
 --------------------------------------------------------
     1   Atom        0.528670     -0.060431     -0.468239
     2   Atom       -0.016874     -0.013718      0.030592
     3   Atom        0.212339     -0.083335     -0.129004
     4   Atom        0.100375      0.061805     -0.162180
     5   Atom        0.008468     -0.012363      0.003895
     6   Atom        0.006110     -0.011055      0.004945
     7   Atom        0.307856     -0.059717     -0.248139
     8   Atom       -0.100375      0.038467      0.061908
 --------------------------------------------------------
                        XY            XZ            YZ
 --------------------------------------------------------
     1   Atom       -0.777067      0.364506     -0.236568
     2   Atom       -0.025970      0.001046      0.044369
     3   Atom       -0.122917     -0.004545      0.007929
     4   Atom       -0.228078      0.025284     -0.029941
     5   Atom        0.002959     -0.017197     -0.007013
     6   Atom        0.006116      0.015168      0.010049
     7   Atom        0.050790      0.510328      1.604251
     8   Atom        0.036739     -0.024140     -0.130966
 --------------------------------------------------------


 ---------------------------------------------------------------------------------
              Anisotropic Spin Dipole Couplings in Principal Axis System
 ---------------------------------------------------------------------------------

       Atom             a.u.   MegaHertz   Gauss  10(-4) cm-1        Axes

              Baa    -0.6038   -23.285    -8.309    -7.767  0.5962  0.6437 -0.4798
     1 N(14)  Bbb    -0.5759   -22.211    -7.925    -7.409  0.0988  0.5342  0.8396
              Bcc     1.1796    45.496    16.234    15.176  0.7968 -0.5479  0.2549
 
              Baa    -0.0551   -29.394   -10.489    -9.805  0.5233  0.7541 -0.3969
     2 H(1)   Bbb    -0.0052    -2.775    -0.990    -0.926  0.8342 -0.3581  0.4195
              Bcc     0.0603    32.169    11.479    10.730 -0.1742  0.5506  0.8164
 
              Baa    -0.1344   -71.707   -25.587   -23.919 -0.2136 -0.6301  0.7466
     3 H(1)   Bbb    -0.1225   -65.357   -23.321   -21.801  0.2653  0.6981  0.6650
              Bcc     0.2569   137.064    48.908    45.720  0.9402 -0.3401 -0.0181
 
              Baa    -0.1666    -6.427    -2.293    -2.144  0.1130  0.2393  0.9644
     4 N(14)  Bbb    -0.1465    -5.651    -2.016    -1.885  0.6705  0.6979 -0.2517
              Bcc     0.3132    12.078     4.310     4.029  0.7333 -0.6751  0.0815
 
              Baa    -0.0159    -8.480    -3.026    -2.828  0.2696  0.8097  0.5213
     5 H(1)   Bbb    -0.0089    -4.754    -1.696    -1.586  0.6299 -0.5578  0.5405
              Bcc     0.0248    13.233     4.722     4.414  0.7284  0.1826 -0.6604
 
              Baa    -0.0160    -8.536    -3.046    -2.847  0.0910  0.8706 -0.4836
     6 H(1)   Bbb    -0.0084    -4.475    -1.597    -1.493  0.7399 -0.3841 -0.5523
              Bcc     0.0244    13.011     4.642     4.340  0.6665  0.3076  0.6791
 
              Baa    -1.8154   -70.017   -24.984   -23.355 -0.1598 -0.6634  0.7310
     7 N(14)  Bbb     0.2408     9.288     3.314     3.098  0.9406 -0.3270 -0.0910
              Bcc     1.5746    60.729    21.670    20.257  0.2994  0.6731  0.6762
 
              Baa    -0.1106   -59.003   -21.054   -19.681  0.9294 -0.3449 -0.1318
     8 H(1)   Bbb    -0.0774   -41.296   -14.735   -13.775  0.3389  0.6554  0.6749
              Bcc     0.1880   100.299    35.789    33.456 -0.1464 -0.6719  0.7260
 

 ---------------------------------------------------------------------------------

 No NMR shielding tensors so no spin-rotation constants.
 Leave Link  601 at Sat Feb 16 17:24:10 2019, MaxMem=   196608000 cpu:         6.7
 (Enter /cm/shared/c3ddb/gaussian/09.d01/g09/l701.exe)
 Compute integral second derivatives.
 ... and contract with generalized density number  0.
 Leave Link  701 at Sat Feb 16 17:24:11 2019, MaxMem=   196608000 cpu:         4.0
 (Enter /cm/shared/c3ddb/gaussian/09.d01/g09/l702.exe)
 L702 exits ... SP integral derivatives will be done elsewhere.
 Leave Link  702 at Sat Feb 16 17:24:11 2019, MaxMem=   196608000 cpu:         0.2
 (Enter /cm/shared/c3ddb/gaussian/09.d01/g09/l703.exe)
 Compute integral second derivatives, UseDBF=F ICtDFT=           0.
 Integral derivatives from FoFJK, PRISM(SPDF).
 Calling FoFJK, ICntrl=    100147 FMM=F ISym2X=0 I1Cent= 0 IOpClX= 1 NMat=1 NMatS=1 NMatT=0.
 FoFJK:  IHMeth= 1 ICntrl=  100147 DoSepK=F KAlg= 0 I1Cent=   0 FoldK=F
 IRaf=         0 NMat=   1 IRICut=       1 DoRegI=T DoRafI=F ISym2E= 0.
 FoFCou: FMM=F IPFlag=           0 FMFlag=      100000 FMFlg1=         800
         NFxFlg=           0 DoJE=F BraDBF=F KetDBF=F FulRan=T
         wScrn=  0.000000 ICntrl=  100147 IOpCl=  1 I1Cent=           0 NGrid=           0
         NMat0=    1 NMatS0=      1 NMatT0=    0 NMatD0=    1 NMtDS0=    0 NMtDT0=    0
 Symmetry not used in FoFCou.
 Leave Link  703 at Sat Feb 16 17:24:19 2019, MaxMem=   196608000 cpu:        58.7
 (Enter /cm/shared/c3ddb/gaussian/09.d01/g09/l716.exe)
 Dipole        =-1.27564609D+00-2.17658620D-01 8.69356030D-01
 Polarizability= 0.00000000D+00 0.00000000D+00 0.00000000D+00
                 0.00000000D+00 0.00000000D+00 0.00000000D+00
 ***** Axes restored to original set *****
 -------------------------------------------------------------------
 Center     Atomic                   Forces (Hartrees/Bohr)
 Number     Number              X              Y              Z
 -------------------------------------------------------------------
      1        7          -0.001046301    0.005157191   -0.002066364
      2        1          -0.000161012    0.001102566    0.003289390
      3        1           0.005008038   -0.000624433   -0.003023347
      4        7          -0.001168482   -0.003900337    0.001258561
      5        1          -0.002811708   -0.000480053    0.002525493
      6        1          -0.001813933   -0.000892014   -0.002937985
      7        7           0.002187151    0.002680935   -0.002142988
      8        1          -0.000193754   -0.003043855    0.003097241
 -------------------------------------------------------------------
 Cartesian Forces:  Max     0.005157191 RMS     0.002577845
 Force constants in Cartesian coordinates: 
                1             2             3             4             5 
      1  0.275177D+00
      2  0.980174D-01  0.371479D+00
      3 -0.452361D-01  0.176983D+00  0.459082D+00
      4 -0.403537D-01 -0.398097D-02  0.226839D-01  0.502911D-01
      5 -0.148550D-01 -0.949176D-01 -0.125148D+00  0.153934D-01  0.124012D+00
      6  0.211748D-01 -0.183000D+00 -0.351678D+00 -0.183170D-01  0.167048D+00
      7  0.192675D-01  0.275050D-01  0.182213D-01 -0.194762D-02  0.751666D-02
      8 -0.122651D-01 -0.535900D-01 -0.223945D-01  0.133569D-01 -0.518271D-02
      9  0.158580D-02 -0.852785D-02 -0.294309D-01  0.244667D-01 -0.784739D-02
     10 -0.124011D+00 -0.137827D+00 -0.130699D-02 -0.700099D-02 -0.753246D-02
     11 -0.627689D-01 -0.188139D+00 -0.294077D-01 -0.164802D-01 -0.224451D-01
     12  0.379974D-01  0.136673D-01 -0.981114D-01 -0.251887D-01 -0.343720D-01
     13 -0.160801D-01  0.337841D-02  0.131863D-01  0.541566D-03  0.313343D-03
     14 -0.319907D-01 -0.162699D-01  0.308108D-01  0.199832D-03  0.295294D-02
     15  0.189552D-02  0.460540D-03  0.429059D-02 -0.214799D-02 -0.581724D-03
     16 -0.952597D-02 -0.633528D-02 -0.119579D-01 -0.140384D-02 -0.543507D-04
     17 -0.296727D-01 -0.190787D-01 -0.323003D-01 -0.705414D-02 -0.495116D-02
     18 -0.203655D-02 -0.211042D-02  0.111326D-01 -0.692015D-03  0.176738D-02
     19 -0.993144D-01  0.178125D-01  0.737225D-02 -0.106073D-02 -0.543222D-03
     20  0.499285D-01  0.109595D-02  0.324896D-02 -0.230342D-02  0.854820D-03
     21 -0.146649D-01  0.397687D-02  0.485317D-02 -0.133299D-02 -0.100351D-02
     22 -0.515878D-02  0.143035D-02 -0.296283D-02  0.934224D-03 -0.238284D-03
     23  0.360651D-02 -0.580249D-03 -0.179168D-02  0.868651D-03 -0.323194D-03
     24 -0.715878D-03 -0.144885D-02 -0.138243D-03  0.528086D-03  0.137636D-03
                6             7             8             9            10 
      6  0.347960D+00
      7 -0.110766D-01 -0.394792D-01
      8  0.335338D-02  0.434377D-01  0.596555D-01
      9 -0.660635D-02 -0.160745D-01  0.545946D-02  0.605273D-01
     10  0.467073D-02 -0.226067D-01 -0.257667D-01  0.394554D-03  0.479264D+00
     11  0.140670D-01 -0.583039D-01  0.205232D-01 -0.238829D-02  0.204927D+00
     12  0.257906D-02 -0.476914D-02  0.112273D-01 -0.218795D-02 -0.145882D-01
     13 -0.650484D-03  0.112602D-02 -0.451604D-02  0.149102D-02 -0.170376D+00
     14  0.910378D-03  0.518791D-02 -0.441369D-02  0.174776D-02 -0.117121D-01
     15  0.415990D-02 -0.471086D-02  0.117860D-02 -0.219940D-03  0.171749D+00
     16  0.568978D-03 -0.859215D-02  0.347864D-03 -0.275124D-02 -0.158469D+00
     17 -0.564266D-03  0.780599D-02 -0.354979D-02  0.272863D-04 -0.192100D-01
     18  0.134125D-02  0.652746D-02 -0.237878D-02  0.846520D-04 -0.163484D+00
     19  0.341796D-02  0.488551D-01 -0.240348D-01 -0.233307D-03  0.134311D-02
     20 -0.160375D-02 -0.255655D-01 -0.101854D-01  0.243493D-02 -0.139153D-02
     21  0.194837D-02  0.658329D-02  0.107424D-02 -0.208568D-01  0.328029D-02
     22  0.211652D-03  0.337705D-02  0.944015D-02 -0.887898D-02  0.185712D-02
     23 -0.210352D-03 -0.758390D-02 -0.325709D-02  0.909410D-02 -0.148678D-02
     24  0.295980D-03  0.529906D-02  0.248032D-02 -0.130998D-02 -0.715018D-03
               11            12            13            14            15 
     11  0.233009D+00
     12  0.344899D-01  0.749200D+00
     13 -0.373324D-01  0.196847D+00  0.173253D+00
     14 -0.180690D-01 -0.317257D-01  0.338946D-01  0.362979D-01
     15  0.152224D-02 -0.323113D+00 -0.190177D+00 -0.523750D-03  0.336985D+00
     16 -0.451069D-01 -0.191196D+00  0.125264D-01  0.597278D-02  0.225671D-01
     17 -0.145642D-01  0.976558D-02  0.376921D-02 -0.235361D-02 -0.116077D-02
     18 -0.231324D-01 -0.330376D+00 -0.209520D-01  0.102297D-05 -0.227271D-01
     19  0.142502D-01 -0.279916D-03 -0.127433D-02 -0.105358D-02  0.430423D-03
     20 -0.898821D-02 -0.224478D-02  0.479635D-03  0.145235D-02 -0.799296D-03
     21  0.569511D-02  0.161001D-02  0.505646D-03 -0.121955D-02  0.754217D-03
     22  0.815039D-03  0.117821D-02  0.283382D-03 -0.498659D-03  0.394216D-03
     23 -0.132636D-02 -0.807525D-03  0.132828D-04  0.402947D-03 -0.958379D-04
     24 -0.845848D-03  0.399090D-03 -0.249713D-03  0.000000D+00 -0.129619D-03
               16            17            18            19            20 
     16  0.163778D+00
     17  0.463975D-01  0.429506D-01
     18  0.181868D+00  0.247683D-01  0.341099D+00
     19  0.138728D-02 -0.189504D-02 -0.111724D-02  0.762038D-01
     20 -0.647342D-03  0.114919D-02  0.843177D-03  0.262180D-01  0.193134D+00
     21  0.118759D-02 -0.620958D-03 -0.576800D-03 -0.527566D-01 -0.197798D+00
     22  0.299824D-03 -0.140814D-03 -0.112994D-03 -0.261398D-01 -0.467184D-01
     23 -0.574355D-03  0.397619D-03  0.241705D-03 -0.307540D-01 -0.178513D+00
     24 -0.285996D-03  0.851693D-04  0.225960D-04  0.431664D-01  0.195919D+00
               21            22            23            24 
     21  0.221413D+00
     22  0.571977D-01  0.245470D-01
     23  0.189896D+00  0.359106D-01  0.183199D+00
     24 -0.209145D+00 -0.470270D-01 -0.196326D+00  0.210005D+00
 FormGI is forming the generalized inverse of G from B-inverse, IUseBI=4.
 Force constants in internal coordinates: 
                1             2             3             4             5 
      1  0.437149D+00
      2 -0.227639D-02  0.121440D+00
      3 -0.249189D-02  0.374371D-01  0.390176D+00
      4  0.332981D-02  0.116759D+00 -0.140908D-01  0.553945D-01
      5  0.299205D-02 -0.387263D-02  0.466062D-02  0.167150D-02  0.462678D+00
      6 -0.167586D-02 -0.167836D-02  0.125626D-01  0.401921D-03 -0.415970D-03
      7  0.440857D-03  0.233542D-02  0.178180D-03 -0.445299D-02  0.679090D-04
      8  0.598340D-02  0.691369D-02 -0.245325D-01 -0.362264D-03  0.106977D-02
      9  0.338869D-02  0.637987D-02  0.350357D-01 -0.311096D-02 -0.430800D-02
     10 -0.158325D-02 -0.575948D-02  0.434060D-01  0.311501D-02  0.361356D-02
     11 -0.245750D-02 -0.148275D-02  0.595767D-02  0.749303D-02 -0.797675D-03
     12 -0.514478D-02 -0.667898D-02  0.436147D-01  0.392247D-02 -0.849388D-03
     13  0.555368D-02 -0.270351D-02  0.524153D-01  0.135159D-02 -0.125866D-02
     14  0.298987D-03 -0.222461D-02 -0.295366D-01 -0.251008D-04  0.111310D-01
     15  0.291226D-03  0.514385D-02 -0.355970D-02  0.648230D-02  0.394550D-03
     16  0.285815D-02  0.520372D-02  0.213918D-01 -0.109451D-02 -0.135797D-02
     17 -0.329637D-02 -0.307005D-02 -0.245460D-01  0.132440D-02  0.150786D-02
     18 -0.420160D-02 -0.239315D-02 -0.214241D-01 -0.522405D-03 -0.659227D-02
     19 -0.325905D-02 -0.124660D-01  0.134512D-01  0.344253D-02  0.652488D-02
     20  0.373549D-02  0.607159D-02 -0.107138D-01 -0.974772D-03 -0.572795D-02
     21  0.467804D-02 -0.400129D-02  0.241615D-01  0.299016D-02  0.738919D-02
     22  0.100775D-04  0.192445D-02 -0.319993D-02 -0.210046D-03  0.226174D-05
                6             7             8             9            10 
      6  0.459436D+00
      7  0.500480D-04  0.402527D+00
      8 -0.210225D-02  0.679052D-03  0.438327D-01
      9  0.860714D-03 -0.203832D-03 -0.326273D-01  0.969197D-01
     10  0.141146D-02 -0.786258D-03 -0.336783D-01 -0.377673D-01  0.151437D+00
     11 -0.441816D-03 -0.512574D-02 -0.120705D-02  0.419815D-02  0.326241D-02
     12 -0.404180D-04  0.435591D-03  0.600018D-03 -0.530464D-02  0.577633D-02
     13  0.278348D-02  0.474448D-04 -0.669529D-02  0.140229D-01 -0.313107D-02
     14  0.903240D-02 -0.130888D-03  0.286148D-02 -0.233091D-02 -0.556630D-02
     15 -0.169028D-03  0.852738D-02  0.131996D-02 -0.331267D-03 -0.116485D-01
     16  0.204373D-03  0.437248D-03 -0.134431D-01  0.392498D-01 -0.494427D-03
     17 -0.327363D-03  0.662721D-03  0.161421D-01 -0.392057D-01 -0.419409D-02
     18 -0.632287D-02 -0.697625D-04 -0.890296D-02  0.441677D-02 -0.568139D-02
     19  0.781310D-02  0.119705D-03 -0.995556D-02  0.844957D-02 -0.112156D-01
     20 -0.764322D-02  0.229812D-03  0.905122D-02 -0.335824D-02  0.111679D-01
     21  0.649274D-02  0.419280D-03  0.799862D-02  0.674560D-03  0.563360D-02
     22 -0.255327D-03  0.741803D-03  0.375073D-02 -0.169904D-03 -0.608469D-02
               11            12            13            14            15 
     11  0.481856D-01
     12 -0.367178D-02  0.147885D+00
     13  0.345821D-04 -0.454623D-01  0.152882D+00
     14 -0.204377D-03 -0.524395D-01 -0.544076D-01  0.675830D-01
     15 -0.617295D-02  0.138157D-02  0.162195D-03  0.454790D-03  0.737381D-01
     16  0.978525D-03 -0.122499D-02  0.586064D-02 -0.166966D-02  0.171140D-02
     17 -0.457120D-02  0.210324D-02 -0.549103D-02  0.189959D-02  0.630991D-02
     18  0.236942D-03 -0.137777D-02 -0.502326D-02 -0.398769D-02  0.122257D-02
     19 -0.274917D-02  0.368287D-02  0.977031D-02  0.337479D-02  0.298525D-02
     20  0.258244D-02 -0.491991D-03 -0.729701D-02 -0.459584D-02 -0.320504D-02
     21 -0.403674D-03  0.456865D-02  0.749656D-02  0.276664D-02 -0.144235D-02
     22 -0.158664D-02  0.572892D-03  0.165877D-03  0.380426D-03  0.668122D-02
               16            17            18            19            20 
     16  0.194477D-01
     17 -0.184033D-01  0.200251D-01
     18 -0.117286D-02  0.574378D-03  0.105277D-01
     19  0.332161D-03  0.322113D-03  0.245446D-03  0.151894D-01
     20  0.278441D-02 -0.253719D-02 -0.481607D-03 -0.127050D-01  0.139730D-01
     21  0.428943D-02 -0.278945D-02 -0.107639D-01  0.223900D-02  0.174959D-02
     22 -0.211580D-03  0.673806D-03 -0.795036D-03  0.267988D-03  0.477376D-03
               21            22 
     21  0.147525D-01
     22  0.154040D-02  0.861125D-03
 Leave Link  716 at Sat Feb 16 17:24:19 2019, MaxMem=   196608000 cpu:         0.6
 (Enter /cm/shared/c3ddb/gaussian/09.d01/g09/l103.exe)

 GradGradGradGradGradGradGradGradGradGradGradGradGradGradGradGradGradGrad
 Berny optimization.
 Red2BG is reusing G-inverse.
 Internal  Forces:  Max     0.007653585 RMS     0.002941795
 Search for a saddle point.
 Step number   1 out of a maximum of   32
 All quantities printed in internal units (Hartrees-Bohrs-Radians)
 Swapping is turned off.
 Second derivative matrix not updated -- analytic derivatives used.
 ITU=  0
     Eigenvalues ---   -0.04190  -0.00043   0.00086   0.00322   0.02909
     Eigenvalues ---    0.04045   0.04747   0.07449   0.12010   0.14609
     Eigenvalues ---    0.17099   0.20408   0.21144   0.40290   0.42987
     Eigenvalues ---    0.43753   0.46347   0.46633
 Eigenvectors required to have negative eigenvalues:
                          R4        R2        D4        D6        R3
   1                   -0.75132   0.59141   0.17188   0.11374  -0.10624
                          A4        A5        A6        A1        D5
   1                    0.08966   0.08095   0.05986  -0.05871  -0.05272
 Eigenvalue     2 is  -4.33D-04 should be greater than     0.000000 Eigenvector:
                          D7        D2        D1        A8        D6
   1                   -0.89098  -0.29675  -0.27786   0.10428   0.09949
                          D5        A1        D4        A4        R4
   1                    0.09136   0.05859   0.04452  -0.04341   0.04018
 RFO step:  Lambda0=1.295477123D-04 Lambda=-8.86510655D-04.
 Linear search not attempted -- option 19 set.
 Iteration  1 RMS(Cart)=  0.13208306 RMS(Int)=  0.09402462
 Iteration  2 RMS(Cart)=  0.13701624 RMS(Int)=  0.03744915
 Iteration  3 RMS(Cart)=  0.04963789 RMS(Int)=  0.00376185
 Iteration  4 RMS(Cart)=  0.00351471 RMS(Int)=  0.00019812
 Iteration  5 RMS(Cart)=  0.00001811 RMS(Int)=  0.00019760
 Iteration  6 RMS(Cart)=  0.00000000 RMS(Int)=  0.00019760
 ITry= 1 IFail=0 DXMaxC= 7.38D-01 DCOld= 1.00D+10 DXMaxT= 3.00D-01 DXLimC= 3.00D+00 Rises=F
 Variable       Old X    -DE/DX   Delta X   Delta X   Delta X     New X
                                 (Linear)    (Quad)   (Total)
    R1        1.92104   0.00343   0.00000   0.00474   0.00474   1.92577
    R2        2.21159   0.00720   0.00000  -0.03269  -0.03269   2.17891
    R3        2.63222   0.00765   0.00000   0.02945   0.02945   2.66167
    R4        2.54608   0.00206   0.00000   0.10128   0.10128   2.64735
    R5        1.90536   0.00370   0.00000   0.00790   0.00790   1.91327
    R6        1.90663   0.00352   0.00000   0.00837   0.00837   1.91499
    R7        1.94965   0.00431   0.00000   0.01101   0.01101   1.96066
    A1        1.79673  -0.00038   0.00000   0.04632   0.04635   1.84308
    A2        1.89414  -0.00097   0.00000  -0.01262  -0.01258   1.88155
    A3        1.90695   0.00371   0.00000  -0.01146  -0.01144   1.89552
    A4        2.87856   0.00021   0.00000  -0.04921  -0.04921   2.82935
    A5        1.98868   0.00096   0.00000  -0.01912  -0.01944   1.96923
    A6        1.91739   0.00042   0.00000  -0.01547  -0.01582   1.90157
    A7        1.93012  -0.00058   0.00000  -0.01538  -0.01600   1.91411
    A8        1.76599   0.00106   0.00000   0.09351   0.09351   1.85950
    D1        1.08685  -0.00016   0.00000  -0.35857  -0.35860   0.72825
    D2       -0.92365  -0.00041   0.00000  -0.36229  -0.36226  -1.28591
    D3        0.23659  -0.00015   0.00000   0.14576   0.14553   0.38212
    D4        2.41322   0.00013   0.00000   0.09888   0.09913   2.51235
    D5        2.18356   0.00075   0.00000   0.18786   0.18760   2.37116
    D6       -1.92300   0.00103   0.00000   0.14097   0.14121  -1.78180
    D7        0.14523   0.00002   0.00000  -0.54138  -0.54138  -0.39615
         Item               Value     Threshold  Converged?
 Maximum Force            0.007654     0.000450     NO 
 RMS     Force            0.002942     0.000300     NO 
 Maximum Displacement     0.738146     0.001800     NO 
 RMS     Displacement     0.292226     0.001200     NO 
 Predicted change in Energy=-6.375837D-04
 Lowest energy point so far.  Saving SCF results.
 GradGradGradGradGradGradGradGradGradGradGradGradGradGradGradGradGradGrad

 Leave Link  103 at Sat Feb 16 17:24:19 2019, MaxMem=   196608000 cpu:         0.6
 (Enter /cm/shared/c3ddb/gaussian/09.d01/g09/l202.exe)
                          Input orientation:                          
 ---------------------------------------------------------------------
 Center     Atomic      Atomic             Coordinates (Angstroms)
 Number     Number       Type             X           Y           Z
 ---------------------------------------------------------------------
      1          7           0       -0.437769    0.631495   -0.022339
      2          1           0       -0.382838    0.967653    0.938125
      3          1           0        0.619099    0.247505   -0.277399
      4          7           0       -1.329870   -0.458187   -0.046905
      5          1           0       -1.970153   -0.459418    0.737382
      6          1           0       -1.853153   -0.435638   -0.914423
      7          7           0        1.869631   -0.376798   -0.182593
      8          1           0        2.084166   -0.456247    0.829408
 ---------------------------------------------------------------------
                    Distance matrix (angstroms):
                    1          2          3          4          5
     1  N    0.000000
     2  H    1.019074   0.000000
     3  H    1.153028   1.732048   0.000000
     4  N    1.408494   1.974887   2.085572   0.000000
     5  H    2.028661   2.143921   2.869450   1.012457   0.000000
     6  H    1.984413   2.750089   2.642823   1.013371   1.656114
     7  N    2.523178   2.852573   1.400918   3.203411   3.949319
     8  H    2.875554   2.850512   1.966395   3.524709   4.055364
                    6          7          8
     6  H    0.000000
     7  N    3.794490   0.000000
     8  H    4.306257   1.037537   0.000000
 Stoichiometry    H5N3(3)
 Framework group  C1[X(H5N3)]
 Deg. of freedom    18
 Full point group                 C1      NOp   1
 RotChk:  IX=0 Diff= 3.82D-01
 Largest Abelian subgroup         C1      NOp   1
 Largest concise Abelian subgroup C1      NOp   1
                         Standard orientation:                         
 ---------------------------------------------------------------------
 Center     Atomic      Atomic             Coordinates (Angstroms)
 Number     Number       Type             X           Y           Z
 ---------------------------------------------------------------------
      1          7           0       -0.440306    0.644762   -0.186089
      2          1           0       -0.412030    1.224200    0.651744
      3          1           0        0.636575    0.259949   -0.333467
      4          7           0       -1.278361   -0.455705    0.079412
      5          1           0       -1.926236   -0.282104    0.837824
      6          1           0       -1.792758   -0.688249   -0.762158
      7          7           0        1.914737   -0.254709   -0.080484
      8          1           0        2.121962   -0.054227    0.916184
 ---------------------------------------------------------------------
 Rotational constants (GHZ):     33.5978677      5.4806453      5.0090904
 Leave Link  202 at Sat Feb 16 17:24:19 2019, MaxMem=   196608000 cpu:         0.3
 (Enter /cm/shared/c3ddb/gaussian/09.d01/g09/l301.exe)
 Standard basis: 6-311G(2d,d,p) (5D, 7F)
 Ernie: Thresh=  0.10000D-02 Tol=  0.10000D-05 Strict=F.
 There are    87 symmetry adapted cartesian basis functions of A   symmetry.
 There are    84 symmetry adapted basis functions of A   symmetry.
    84 basis functions,   136 primitive gaussians,    87 cartesian basis functions
    14 alpha electrons       12 beta electrons
       nuclear repulsion energy        72.2097747475 Hartrees.
 IExCor=  402 DFT=T Ex+Corr=B3LYP ExCW=0 ScaHFX=  0.200000
 ScaDFX=  0.800000  0.720000  1.000000  0.810000 ScalE2=  1.000000  1.000000
 IRadAn=      0 IRanWt=     -1 IRanGd=            0 ICorTp=0 IEmpDi=  4
 NAtoms=    8 NActive=    8 NUniq=    8 SFac= 1.00D+00 NAtFMM=   60 NAOKFM=F Big=F
 Integral buffers will be    131072 words long.
 Raffenetti 2 integral format.
 Two-electron integral symmetry is turned on.
 Leave Link  301 at Sat Feb 16 17:24:20 2019, MaxMem=   196608000 cpu:         0.4
 (Enter /cm/shared/c3ddb/gaussian/09.d01/g09/l302.exe)
 NPDir=0 NMtPBC=     1 NCelOv=     1 NCel=       1 NClECP=     1 NCelD=      1
         NCelK=      1 NCelE2=     1 NClLst=     1 CellRange=     0.0.
 One-electron integrals computed using PRISM.
 NBasis=    84 RedAO= T EigKep=  5.66D-03  NBF=    84
 NBsUse=    84 1.00D-06 EigRej= -1.00D+00 NBFU=    84
 Precomputing XC quadrature grid using
 IXCGrd= 4 IRadAn=           0 IRanWt=          -1 IRanGd=           0 AccXCQ= 0.00D+00.
 Generated NRdTot=       0 NPtTot=           0 NUsed=           0 NTot=          32
 NSgBfM=    87    87    87    87    87 MxSgAt=     8 MxSgA2=     8.
 Leave Link  302 at Sat Feb 16 17:24:20 2019, MaxMem=   196608000 cpu:         4.0
 (Enter /cm/shared/c3ddb/gaussian/09.d01/g09/l303.exe)
 DipDrv:  MaxL=1.
 Leave Link  303 at Sat Feb 16 17:24:20 2019, MaxMem=   196608000 cpu:         1.3
 (Enter /cm/shared/c3ddb/gaussian/09.d01/g09/l401.exe)
 Initial guess from the checkpoint file:  "check.chk"
 B after Tr=     0.000000    0.000000    0.000000
         Rot=    0.993723    0.111749   -0.004788    0.001903 Ang=  12.85 deg.
 Guess basis will be translated and rotated to current coordinates.
 JPrj=2 DoOrth=T DoCkMO=T.
 Initial guess <Sx>= 0.0000 <Sy>= 0.0000 <Sz>= 1.0000 <S**2>= 2.0113 S= 1.0038
 Generating alternative initial guess.
 ExpMin= 1.03D-01 ExpMax= 6.29D+03 ExpMxC= 9.49D+02 IAcc=1 IRadAn=         1 AccDes= 0.00D+00
 Harris functional with IExCor=  402 and IRadAn=       1 diagonalized for initial guess.
 HarFok:  IExCor=  402 AccDes= 0.00D+00 IRadAn=         1 IDoV= 1 UseB2=F ITyADJ=14
 ICtDFT=  3500011 ScaDFX=  1.000000  1.000000  1.000000  1.000000
 FoFCou: FMM=F IPFlag=           0 FMFlag=      100000 FMFlg1=           0
         NFxFlg=           0 DoJE=T BraDBF=F KetDBF=T FulRan=T
         wScrn=  0.000000 ICntrl=     500 IOpCl=  0 I1Cent=   200000004 NGrid=           0
         NMat0=    1 NMatS0=      1 NMatT0=    0 NMatD0=    1 NMtDS0=    0 NMtDT0=    0
 Petite list used in FoFCou.
 Harris En= -167.083459939558    
 Leave Link  401 at Sat Feb 16 17:24:22 2019, MaxMem=   196608000 cpu:        10.7
 (Enter /cm/shared/c3ddb/gaussian/09.d01/g09/l502.exe)
 UHF open shell SCF:
 Using DIIS extrapolation, IDIIS=  1040.
 Integral symmetry usage will be decided dynamically.
 Keep R1 and R2 ints in memory in canonical form, NReq=13685062.
 IVT=       30002 IEndB=       30002 NGot=   196608000 MDV=   183829529
 LenX=   183829529 LenY=   183821519
 Requested convergence on RMS density matrix=1.00D-08 within  64 cycles.
 Requested convergence on MAX density matrix=1.00D-06.
 Requested convergence on             energy=1.00D-06.
 No special actions if energy rises.
 FoFCou: FMM=F IPFlag=           0 FMFlag=           0 FMFlg1=           0
         NFxFlg=           0 DoJE=F BraDBF=F KetDBF=F FulRan=T
         wScrn=  0.000000 ICntrl=     600 IOpCl=  0 I1Cent=           0 NGrid=           0
         NMat0=    1 NMatS0=   3570 NMatT0=    0 NMatD0=    1 NMtDS0=    0 NMtDT0=    0
 Symmetry not used in FoFCou.
 Integral accuracy reduced to 1.0D-05 until final iterations.

 Cycle   1  Pass 0  IDiag  1:
 E= -167.031350110374    
 DIIS: error= 2.60D-02 at cycle   1 NSaved=   1.
 NSaved= 1 IEnMin= 1 EnMin= -167.031350110374     IErMin= 1 ErrMin= 2.60D-02
 ErrMax= 2.60D-02  0.00D+00 EMaxC= 1.00D-01 BMatC= 1.79D-01 BMatP= 1.79D-01
 IDIUse=3 WtCom= 7.40D-01 WtEn= 2.60D-01
 Coeff-Com:  0.100D+01
 Coeff-En:   0.100D+01
 Coeff:      0.100D+01
 Recover alternate guess density for next cycle.
 RMSDP=5.58D-03 MaxDP=9.32D-02              OVMax= 0.00D+00

 Cycle   2  Pass 0  IDiag  1:
 E= -167.061551893250     Delta-E=       -0.030201782876 Rises=F Damp=F
 DIIS: error= 2.48D-02 at cycle   2 NSaved=   2.
 NSaved= 2 IEnMin= 2 EnMin= -167.061551893250     IErMin= 2 ErrMin= 2.48D-02
 ErrMax= 2.48D-02  0.00D+00 EMaxC= 1.00D-01 BMatC= 3.40D-01 BMatP= 1.79D-01
 IDIUse=2 WtCom= 0.00D+00 WtEn= 1.00D+00
 Coeff-En:   0.000D+00 0.100D+01
 Coeff:      0.000D+00 0.100D+01
 Gap=     0.156 Goal=   None    Shift=    0.000
 Gap=     0.180 Goal=   None    Shift=    0.000
 RMSDP=5.82D-03 MaxDP=9.55D-02 DE=-3.02D-02 OVMax= 3.27D-01

 Cycle   3  Pass 0  IDiag  1:
 E= -167.046478720389     Delta-E=        0.015073172861 Rises=F Damp=F
 DIIS: error= 3.87D-02 at cycle   3 NSaved=   3.
 NSaved= 3 IEnMin= 2 EnMin= -167.061551893250     IErMin= 2 ErrMin= 2.48D-02
 ErrMax= 3.87D-02  0.00D+00 EMaxC= 1.00D-01 BMatC= 3.72D-01 BMatP= 1.79D-01
 IDIUse=2 WtCom= 0.00D+00 WtEn= 1.00D+00
 Coeff-En:   0.000D+00 0.549D+00 0.451D+00
 Coeff:      0.000D+00 0.549D+00 0.451D+00
 Gap=     0.251 Goal=   None    Shift=    0.000
 Gap=     0.115 Goal=   None    Shift=    0.000
 RMSDP=3.64D-03 MaxDP=6.52D-02 DE= 1.51D-02 OVMax= 2.01D-01

 Cycle   4  Pass 0  IDiag  1:
 E= -167.129370608044     Delta-E=       -0.082891887656 Rises=F Damp=F
 DIIS: error= 9.24D-03 at cycle   4 NSaved=   4.
 NSaved= 4 IEnMin= 4 EnMin= -167.129370608044     IErMin= 4 ErrMin= 9.24D-03
 ErrMax= 9.24D-03  0.00D+00 EMaxC= 1.00D-01 BMatC= 1.77D-02 BMatP= 1.79D-01
 IDIUse=3 WtCom= 9.08D-01 WtEn= 9.24D-02
 Coeff-Com:  0.340D-01 0.193D+00 0.196D+00 0.577D+00
 Coeff-En:   0.000D+00 0.000D+00 0.000D+00 0.100D+01
 Coeff:      0.309D-01 0.175D+00 0.178D+00 0.616D+00
 Gap=     0.240 Goal=   None    Shift=    0.000
 Gap=     0.120 Goal=   None    Shift=    0.000
 RMSDP=1.29D-03 MaxDP=2.28D-02 DE=-8.29D-02 OVMax= 1.49D-01

 Cycle   5  Pass 0  IDiag  1:
 E= -167.128968755389     Delta-E=        0.000401852655 Rises=F Damp=F
 DIIS: error= 8.77D-03 at cycle   5 NSaved=   5.
 NSaved= 5 IEnMin= 4 EnMin= -167.129370608044     IErMin= 5 ErrMin= 8.77D-03
 ErrMax= 8.77D-03  0.00D+00 EMaxC= 1.00D-01 BMatC= 2.21D-02 BMatP= 1.77D-02
 IDIUse=3 WtCom= 9.65D-02 WtEn= 9.04D-01
 Coeff-Com:  0.563D-02 0.106D-01 0.164D-01 0.520D+00 0.448D+00
 Coeff-En:   0.000D+00 0.000D+00 0.000D+00 0.515D+00 0.485D+00
 Coeff:      0.543D-03 0.102D-02 0.158D-02 0.515D+00 0.481D+00
 Gap=     0.238 Goal=   None    Shift=    0.000
 Gap=     0.122 Goal=   None    Shift=    0.000
 RMSDP=6.97D-04 MaxDP=1.03D-02 DE= 4.02D-04 OVMax= 6.17D-02

 Cycle   6  Pass 0  IDiag  1:
 E= -167.134332018545     Delta-E=       -0.005363263156 Rises=F Damp=F
 DIIS: error= 9.41D-04 at cycle   6 NSaved=   6.
 NSaved= 6 IEnMin= 6 EnMin= -167.134332018545     IErMin= 6 ErrMin= 9.41D-04
 ErrMax= 9.41D-04  0.00D+00 EMaxC= 1.00D-01 BMatC= 2.63D-04 BMatP= 1.77D-02
 IDIUse=3 WtCom= 9.91D-01 WtEn= 9.41D-03
 Coeff-Com:  0.121D-02-0.149D-01-0.256D-01 0.781D-01 0.111D+00 0.850D+00
 Coeff-En:   0.000D+00 0.000D+00 0.000D+00 0.000D+00 0.000D+00 0.100D+01
 Coeff:      0.119D-02-0.148D-01-0.254D-01 0.774D-01 0.110D+00 0.852D+00
 Gap=     0.235 Goal=   None    Shift=    0.000
 Gap=     0.124 Goal=   None    Shift=    0.000
 RMSDP=1.33D-04 MaxDP=1.94D-03 DE=-5.36D-03 OVMax= 1.39D-02

 Cycle   7  Pass 0  IDiag  1:
 E= -167.134419802906     Delta-E=       -0.000087784361 Rises=F Damp=F
 DIIS: error= 4.17D-04 at cycle   7 NSaved=   7.
 NSaved= 7 IEnMin= 7 EnMin= -167.134419802906     IErMin= 7 ErrMin= 4.17D-04
 ErrMax= 4.17D-04  0.00D+00 EMaxC= 1.00D-01 BMatC= 7.85D-05 BMatP= 2.63D-04
 IDIUse=3 WtCom= 9.96D-01 WtEn= 4.17D-03
 Coeff-Com:  0.297D-03-0.473D-02-0.103D-01-0.250D-01-0.445D-01 0.223D+00
 Coeff-Com:  0.861D+00
 Coeff-En:   0.000D+00 0.000D+00 0.000D+00 0.000D+00 0.000D+00 0.000D+00
 Coeff-En:   0.100D+01
 Coeff:      0.295D-03-0.471D-02-0.103D-01-0.249D-01-0.443D-01 0.222D+00
 Coeff:      0.861D+00
 Gap=     0.235 Goal=   None    Shift=    0.000
 Gap=     0.124 Goal=   None    Shift=    0.000
 RMSDP=6.45D-05 MaxDP=1.27D-03 DE=-8.78D-05 OVMax= 2.11D-03

 Cycle   8  Pass 0  IDiag  1:
 E= -167.134438331932     Delta-E=       -0.000018529026 Rises=F Damp=F
 DIIS: error= 3.83D-04 at cycle   8 NSaved=   8.
 NSaved= 8 IEnMin= 8 EnMin= -167.134438331932     IErMin= 8 ErrMin= 3.83D-04
 ErrMax= 3.83D-04  0.00D+00 EMaxC= 1.00D-01 BMatC= 3.51D-05 BMatP= 7.85D-05
 IDIUse=3 WtCom= 9.96D-01 WtEn= 3.83D-03
 Coeff-Com:  0.211D-04 0.132D-02-0.692D-03-0.329D-01-0.651D-01-0.553D-01
 Coeff-Com:  0.590D+00 0.563D+00
 Coeff-En:   0.000D+00 0.000D+00 0.000D+00 0.000D+00 0.000D+00 0.000D+00
 Coeff-En:   0.000D+00 0.100D+01
 Coeff:      0.210D-04 0.131D-02-0.689D-03-0.328D-01-0.648D-01-0.551D-01
 Coeff:      0.588D+00 0.564D+00
 Gap=     0.234 Goal=   None    Shift=    0.000
 Gap=     0.124 Goal=   None    Shift=    0.000
 RMSDP=2.93D-05 MaxDP=3.92D-04 DE=-1.85D-05 OVMax= 1.97D-03

 Cycle   9  Pass 0  IDiag  1:
 E= -167.134446309470     Delta-E=       -0.000007977538 Rises=F Damp=F
 DIIS: error= 5.78D-05 at cycle   9 NSaved=   9.
 NSaved= 9 IEnMin= 9 EnMin= -167.134446309470     IErMin= 9 ErrMin= 5.78D-05
 ErrMax= 5.78D-05  0.00D+00 EMaxC= 1.00D-01 BMatC= 1.45D-06 BMatP= 3.51D-05
 IDIUse=1 WtCom= 1.00D+00 WtEn= 0.00D+00
 Coeff-Com:  0.117D-04 0.285D-03 0.476D-03 0.399D-02-0.826D-03-0.130D-01
 Coeff-Com: -0.986D-01 0.116D-01 0.110D+01
 Coeff:      0.117D-04 0.285D-03 0.476D-03 0.399D-02-0.826D-03-0.130D-01
 Coeff:     -0.986D-01 0.116D-01 0.110D+01
 Gap=     0.234 Goal=   None    Shift=    0.000
 Gap=     0.124 Goal=   None    Shift=    0.000
 RMSDP=1.03D-05 MaxDP=1.73D-04 DE=-7.98D-06 OVMax= 4.66D-04

 Cycle  10  Pass 0  IDiag  1:
 E= -167.134446794650     Delta-E=       -0.000000485180 Rises=F Damp=F
 DIIS: error= 7.20D-06 at cycle  10 NSaved=  10.
 NSaved=10 IEnMin=10 EnMin= -167.134446794650     IErMin=10 ErrMin= 7.20D-06
 ErrMax= 7.20D-06  0.00D+00 EMaxC= 1.00D-01 BMatC= 1.98D-08 BMatP= 1.45D-06
 IDIUse=1 WtCom= 1.00D+00 WtEn= 0.00D+00
 Coeff-Com:  0.101D-04-0.325D-04 0.496D-04 0.256D-02 0.411D-02 0.339D-02
 Coeff-Com: -0.430D-01-0.424D-01 0.100D+00 0.975D+00
 Coeff:      0.101D-04-0.325D-04 0.496D-04 0.256D-02 0.411D-02 0.339D-02
 Coeff:     -0.430D-01-0.424D-01 0.100D+00 0.975D+00
 Gap=     0.234 Goal=   None    Shift=    0.000
 Gap=     0.124 Goal=   None    Shift=    0.000
 RMSDP=1.65D-06 MaxDP=2.07D-05 DE=-4.85D-07 OVMax= 1.36D-04

 Initial convergence to 1.0D-05 achieved.  Increase integral accuracy.
 Cycle  11  Pass 1  IDiag  1:
 E= -167.134445581504     Delta-E=        0.000001213147 Rises=F Damp=F
 DIIS: error= 5.86D-06 at cycle   1 NSaved=   1.
 NSaved= 1 IEnMin= 1 EnMin= -167.134445581504     IErMin= 1 ErrMin= 5.86D-06
 ErrMax= 5.86D-06  0.00D+00 EMaxC= 1.00D-01 BMatC= 9.27D-09 BMatP= 9.27D-09
 IDIUse=1 WtCom= 1.00D+00 WtEn= 0.00D+00
 Coeff-Com:  0.100D+01
 Coeff:      0.100D+01
 Gap=     0.234 Goal=   None    Shift=    0.000
 Gap=     0.124 Goal=   None    Shift=    0.000
 RMSDP=1.65D-06 MaxDP=2.07D-05 DE= 1.21D-06 OVMax= 2.34D-05

 Cycle  12  Pass 1  IDiag  1:
 E= -167.134445584259     Delta-E=       -0.000000002755 Rises=F Damp=F
 DIIS: error= 1.87D-06 at cycle   2 NSaved=   2.
 NSaved= 2 IEnMin= 2 EnMin= -167.134445584259     IErMin= 2 ErrMin= 1.87D-06
 ErrMax= 1.87D-06  0.00D+00 EMaxC= 1.00D-01 BMatC= 7.87D-10 BMatP= 9.27D-09
 IDIUse=1 WtCom= 1.00D+00 WtEn= 0.00D+00
 Coeff-Com:  0.785D-01 0.921D+00
 Coeff:      0.785D-01 0.921D+00
 Gap=     0.234 Goal=   None    Shift=    0.000
 Gap=     0.124 Goal=   None    Shift=    0.000
 RMSDP=4.10D-07 MaxDP=6.66D-06 DE=-2.76D-09 OVMax= 4.56D-05

 Cycle  13  Pass 1  IDiag  1:
 E= -167.134445583870     Delta-E=        0.000000000388 Rises=F Damp=F
 DIIS: error= 3.31D-06 at cycle   3 NSaved=   3.
 NSaved= 3 IEnMin= 2 EnMin= -167.134445584259     IErMin= 2 ErrMin= 1.87D-06
 ErrMax= 3.31D-06  0.00D+00 EMaxC= 1.00D-01 BMatC= 2.73D-09 BMatP= 7.87D-10
 IDIUse=1 WtCom= 1.00D+00 WtEn= 0.00D+00
 Coeff-Com: -0.160D-01 0.675D+00 0.341D+00
 Coeff:     -0.160D-01 0.675D+00 0.341D+00
 Gap=     0.234 Goal=   None    Shift=    0.000
 Gap=     0.124 Goal=   None    Shift=    0.000
 RMSDP=2.55D-07 MaxDP=3.99D-06 DE= 3.88D-10 OVMax= 2.53D-05

 Cycle  14  Pass 1  IDiag  1:
 E= -167.134445584550     Delta-E=       -0.000000000680 Rises=F Damp=F
 DIIS: error= 2.93D-07 at cycle   4 NSaved=   4.
 NSaved= 4 IEnMin= 4 EnMin= -167.134445584550     IErMin= 4 ErrMin= 2.93D-07
 ErrMax= 2.93D-07  0.00D+00 EMaxC= 1.00D-01 BMatC= 4.31D-11 BMatP= 7.87D-10
 IDIUse=1 WtCom= 1.00D+00 WtEn= 0.00D+00
 Coeff-Com: -0.216D-01 0.194D+00 0.106D+00 0.721D+00
 Coeff:     -0.216D-01 0.194D+00 0.106D+00 0.721D+00
 Gap=     0.234 Goal=   None    Shift=    0.000
 Gap=     0.124 Goal=   None    Shift=    0.000
 RMSDP=4.94D-08 MaxDP=8.31D-07 DE=-6.80D-10 OVMax= 4.48D-06

 Cycle  15  Pass 1  IDiag  1:
 E= -167.134445584563     Delta-E=       -0.000000000012 Rises=F Damp=F
 DIIS: error= 2.49D-07 at cycle   5 NSaved=   5.
 NSaved= 5 IEnMin= 5 EnMin= -167.134445584563     IErMin= 5 ErrMin= 2.49D-07
 ErrMax= 2.49D-07  0.00D+00 EMaxC= 1.00D-01 BMatC= 1.98D-11 BMatP= 4.31D-11
 IDIUse=1 WtCom= 1.00D+00 WtEn= 0.00D+00
 Coeff-Com: -0.332D-02-0.562D-01-0.710D-01 0.257D+00 0.873D+00
 Coeff:     -0.332D-02-0.562D-01-0.710D-01 0.257D+00 0.873D+00
 Gap=     0.234 Goal=   None    Shift=    0.000
 Gap=     0.124 Goal=   None    Shift=    0.000
 RMSDP=3.05D-08 MaxDP=6.73D-07 DE=-1.24D-11 OVMax= 1.18D-06

 Cycle  16  Pass 1  IDiag  1:
 E= -167.134445584568     Delta-E=       -0.000000000006 Rises=F Damp=F
 DIIS: error= 1.21D-07 at cycle   6 NSaved=   6.
 NSaved= 6 IEnMin= 6 EnMin= -167.134445584568     IErMin= 6 ErrMin= 1.21D-07
 ErrMax= 1.21D-07  0.00D+00 EMaxC= 1.00D-01 BMatC= 3.93D-12 BMatP= 1.98D-11
 IDIUse=1 WtCom= 1.00D+00 WtEn= 0.00D+00
 Coeff-Com:  0.288D-02-0.727D-01-0.733D-01-0.122D-01 0.468D+00 0.687D+00
 Coeff:      0.288D-02-0.727D-01-0.733D-01-0.122D-01 0.468D+00 0.687D+00
 Gap=     0.234 Goal=   None    Shift=    0.000
 Gap=     0.124 Goal=   None    Shift=    0.000
 RMSDP=1.46D-08 MaxDP=2.55D-07 DE=-5.57D-12 OVMax= 7.31D-07

 Cycle  17  Pass 1  IDiag  1:
 E= -167.134445584569     Delta-E=       -0.000000000001 Rises=F Damp=F
 DIIS: error= 4.31D-08 at cycle   7 NSaved=   7.
 NSaved= 7 IEnMin= 7 EnMin= -167.134445584569     IErMin= 7 ErrMin= 4.31D-08
 ErrMax= 4.31D-08  0.00D+00 EMaxC= 1.00D-01 BMatC= 4.45D-13 BMatP= 3.93D-12
 IDIUse=1 WtCom= 1.00D+00 WtEn= 0.00D+00
 Coeff-Com:  0.149D-02-0.290D-01-0.301D-01-0.290D-01 0.141D+00 0.350D+00
 Coeff-Com:  0.596D+00
 Coeff:      0.149D-02-0.290D-01-0.301D-01-0.290D-01 0.141D+00 0.350D+00
 Coeff:      0.596D+00
 Gap=     0.234 Goal=   None    Shift=    0.000
 Gap=     0.124 Goal=   None    Shift=    0.000
 RMSDP=3.69D-09 MaxDP=7.01D-08 DE=-1.08D-12 OVMax= 2.53D-07

 SCF Done:  E(UB3LYP) =  -167.134445585     A.U. after   17 cycles
            NFock= 17  Conv=0.37D-08     -V/T= 2.0028
 <Sx>= 0.0000 <Sy>= 0.0000 <Sz>= 1.0000 <S**2>= 2.0111 S= 1.0037
 <L.S>= 0.000000000000E+00
 KE= 1.666677856254D+02 PE=-5.359524964379D+02 EE= 1.299404904804D+02
[...]
 Leave Link  906 at Sat Feb 16 18:36:16 2019, MaxMem=   196608000 cpu:       846.4
 (Enter /cm/shared/c3ddb/gaussian/09.d01/g09/l904.exe)

 Complete Basis Set (CBS) Extrapolation:
 M. R. Nyden and G. A. Petersson, JCP 75, 1843 (1981)
 G. A. Petersson and M. A. Al-Laham, JCP 94, 6081 (1991)
 G. A. Petersson, T. Tensfeldt, and J. A. Montgomery, JCP 94, 6091 (1991)
 J. A. Montgomery, J. W. Ochterski, and G. A. Petersson, JCP 101, 5900 (1994)
 
 Available Memory in CBS =  196608000
 Minimum Number of PNO for Extrapolation =  10
 Absolute Overlaps: IRadAn =     99590
 LocTrn: ILocal=3 LocCor=F DoCore=F.
 LocMO: Using population method
 Initial Trace= 0.90000000D+01 Initial TraceA= 0.47378741D+01
 RMSG= 0.41558433D-08
 LocMO: Using population method
 Initial Trace= 0.20000000D+01 Initial TraceA= 0.16564137D+01
 RMSG= 0.35253577D-17
 LocMO: Using population method
 Initial Trace= 0.90000000D+01 Initial TraceA= 0.45129385D+01
 RMSG= 0.37422511D-08
 <Sx>= 0.0000 <Sy>= 0.0000 <Sz>= 1.0000 <S**2>= 2.0455 S= 1.0151 S2Cor=-2.8785
 There are a total of      404740 grid points.
 ElSum from         orbitals=       26.0000004936
 E2(CBS)=      -0.649217 CBS-Int=       0.019528 OIii=       4.941942
 Leave Link  904 at Sat Feb 16 18:36:24 2019, MaxMem=   196608000 cpu:        63.8
 (Enter /cm/shared/c3ddb/gaussian/09.d01/g09/l601.exe)
 Copying SCF densities to generalized density rwf, IOpCl= 1 IROHF=0.

 **********************************************************************

            Population analysis using the SCF density.

 **********************************************************************

 Orbital symmetries:
 Alpha Orbitals:
       Occupied  (A) (A) (A) (A) (A) (A) (A) (A) (A) (A) (A) (A)
                 (A) (A)
       Virtual   (A) (A) (A) (A) (A) (A) (A) (A) (A) (A) (A) (A)
                 (A) (A) (A) (A) (A) (A) (A) (A) (A) (A) (A) (A)
                 (A) (A) (A) (A) (A) (A) (A) (A) (A) (A) (A) (A)
                 (A) (A) (A) (A) (A) (A) (A) (A) (A) (A) (A) (A)
                 (A) (A) (A) (A) (A) (A) (A) (A) (A) (A) (A) (A)
                 (A) (A) (A) (A) (A) (A) (A) (A) (A) (A) (A) (A)
                 (A) (A) (A) (A) (A) (A) (A) (A) (A) (A) (A) (A)
                 (A) (A) (A) (A) (A) (A) (A) (A) (A) (A) (A) (A)
                 (A) (A) (A) (A) (A) (A) (A) (A) (A) (A) (A) (A)
                 (A) (A) (A) (A) (A) (A) (A) (A) (A) (A) (A) (A)
                 (A) (A) (A) (A) (A) (A) (A) (A) (A) (A) (A) (A)
                 (A) (A) (A) (A) (A) (A)
 Beta  Orbitals:
       Occupied  (A) (A) (A) (A) (A) (A) (A) (A) (A) (A) (A) (A)
       Virtual   (A) (A) (A) (A) (A) (A) (A) (A) (A) (A) (A) (A)
                 (A) (A) (A) (A) (A) (A) (A) (A) (A) (A) (A) (A)
                 (A) (A) (A) (A) (A) (A) (A) (A) (A) (A) (A) (A)
                 (A) (A) (A) (A) (A) (A) (A) (A) (A) (A) (A) (A)
                 (A) (A) (A) (A) (A) (A) (A) (A) (A) (A) (A) (A)
                 (A) (A) (A) (A) (A) (A) (A) (A) (A) (A) (A) (A)
                 (A) (A) (A) (A) (A) (A) (A) (A) (A) (A) (A) (A)
                 (A) (A) (A) (A) (A) (A) (A) (A) (A) (A) (A) (A)
                 (A) (A) (A) (A) (A) (A) (A) (A) (A) (A) (A) (A)
                 (A) (A) (A) (A) (A) (A) (A) (A) (A) (A) (A) (A)
                 (A) (A) (A) (A) (A) (A) (A) (A) (A) (A) (A) (A)
                 (A) (A) (A) (A) (A) (A) (A) (A)
 The electronic state is 3-A.
 Alpha  occ. eigenvalues --  -15.64190 -15.57815 -15.56806  -1.27074  -1.18960
 Alpha  occ. eigenvalues --   -1.00339  -0.71235  -0.66756  -0.61550  -0.58805
 Alpha  occ. eigenvalues --   -0.55394  -0.51289  -0.48622  -0.34888
 Alpha virt. eigenvalues --    0.04137   0.05925   0.06761   0.07827   0.10451
 Alpha virt. eigenvalues --    0.18007   0.18422   0.18928   0.21162   0.22290
 Alpha virt. eigenvalues --    0.23110   0.23986   0.24163   0.25693   0.26634
 Alpha virt. eigenvalues --    0.28436   0.30184   0.31264   0.31803   0.36558
 Alpha virt. eigenvalues --    0.40250   0.46783   0.50232   0.64588   0.65581
 Alpha virt. eigenvalues --    0.70334   0.72311   0.73976   0.76568   0.77067
 Alpha virt. eigenvalues --    0.81314   0.83215   0.84223   0.85681   0.87480
 Alpha virt. eigenvalues --    0.90194   0.93270   0.95177   0.95812   0.97818
 Alpha virt. eigenvalues --    0.99389   1.09179   1.12626   1.13485   1.17096
 Alpha virt. eigenvalues --    1.19170   1.24187   1.28380   1.37596   1.40777
 Alpha virt. eigenvalues --    1.46749   1.48785   1.51967   1.52390   1.57225
 Alpha virt. eigenvalues --    1.62544   1.65430   1.68347   1.78923   1.83788
 Alpha virt. eigenvalues --    1.86270   1.91249   1.95584   1.98934   2.02532
 Alpha virt. eigenvalues --    2.11911   2.17927   2.22079   2.28041   2.31481
 Alpha virt. eigenvalues --    2.77728   2.81655   2.85782   3.06713   3.13632
 Alpha virt. eigenvalues --    3.58437   3.59241   3.60299   3.70556   3.74290
 Alpha virt. eigenvalues --    3.75511   3.77965   3.85046   3.86251   3.89822
 Alpha virt. eigenvalues --    3.91871   3.93877   4.00437   4.03950   4.07001
 Alpha virt. eigenvalues --    4.08720   4.14218   4.16498   4.18075   4.19434
 Alpha virt. eigenvalues --    4.21944   4.23432   4.32738   4.34296   4.42428
 Alpha virt. eigenvalues --    4.45964   4.57458   4.67736   4.70041   4.73726
 Alpha virt. eigenvalues --    4.75844   4.78923   4.93163   4.95898   4.99757
 Alpha virt. eigenvalues --    5.15673   5.20110   5.22195   5.27055   5.39514
 Alpha virt. eigenvalues --    5.40389   5.45736   5.49837   5.56624   5.58122
 Alpha virt. eigenvalues --    5.60087   5.63470   5.68722   5.76189   5.79205
 Alpha virt. eigenvalues --    5.86142   5.96549   5.99402   6.02604   6.19954
 Alpha virt. eigenvalues --    6.45528   6.60474   6.78243   6.93515   7.04447
 Alpha virt. eigenvalues --   36.81257  37.09236  37.14280
  Beta  occ. eigenvalues --  -15.58281 -15.56788 -15.56481  -1.24976  -1.00007
  Beta  occ. eigenvalues --   -0.94029  -0.69765  -0.61809  -0.59515  -0.50473
  Beta  occ. eigenvalues --   -0.47814  -0.33112
  Beta virt. eigenvalues --    0.04263   0.05460   0.05705   0.07665   0.08409
  Beta virt. eigenvalues --    0.09467   0.10817   0.18449   0.20090   0.21790
  Beta virt. eigenvalues --    0.22358   0.23501   0.23924   0.24393   0.26189
  Beta virt. eigenvalues --    0.27557   0.28505   0.28695   0.30689   0.31802
  Beta virt. eigenvalues --    0.32456   0.37022   0.40852   0.48150   0.54682
  Beta virt. eigenvalues --    0.65475   0.66013   0.71386   0.72648   0.75135
  Beta virt. eigenvalues --    0.77004   0.78943   0.83147   0.85077   0.85836
  Beta virt. eigenvalues --    0.87767   0.88294   0.91604   0.94707   0.97215
  Beta virt. eigenvalues --    0.99169   1.06785   1.09444   1.11063   1.13595
  Beta virt. eigenvalues --    1.14313   1.18466   1.20580   1.25408   1.33779
  Beta virt. eigenvalues --    1.40026   1.42602   1.48490   1.52629   1.53989
  Beta virt. eigenvalues --    1.57084   1.59317   1.66064   1.67145   1.69553
  Beta virt. eigenvalues --    1.80655   1.86337   1.87494   1.92782   1.96972
  Beta virt. eigenvalues --    2.01562   2.03652   2.12607   2.19511   2.22393
  Beta virt. eigenvalues --    2.30494   2.35536   2.77995   2.82059   2.85988
  Beta virt. eigenvalues --    3.06813   3.13057   3.59409   3.60791   3.62955
  Beta virt. eigenvalues --    3.71465   3.75128   3.76565   3.79999   3.89457
  Beta virt. eigenvalues --    3.91205   3.92023   3.95184   3.95727   4.03876
  Beta virt. eigenvalues --    4.06235   4.10343   4.12032   4.16930   4.18408
  Beta virt. eigenvalues --    4.19289   4.22764   4.24162   4.29148   4.34084
  Beta virt. eigenvalues --    4.36318   4.44869   4.48657   4.60408   4.70392
  Beta virt. eigenvalues --    4.71987   4.73964   4.77634   4.80278   4.96205
  Beta virt. eigenvalues --    4.96358   5.00900   5.17382   5.22655   5.34079
  Beta virt. eigenvalues --    5.36577   5.40704   5.45472   5.50688   5.56237
  Beta virt. eigenvalues --    5.58344   5.59695   5.62340   5.65416   5.72491
  Beta virt. eigenvalues --    5.77592   5.80432   5.88048   5.97127   6.01145
  Beta virt. eigenvalues --    6.02914   6.21339   6.47913   6.62037   6.78773
  Beta virt. eigenvalues --    6.93576   7.04704  36.84849  37.10106  37.14304
          Condensed to atoms (all electrons):
               1          2          3          4          5          6
     1  N    6.643822   0.388297   0.363050   0.087887  -0.045223  -0.053227
     2  H    0.388297   0.561045  -0.041770  -0.034544  -0.017694   0.007607
     3  H    0.363050  -0.041770   0.434488  -0.089996   0.005789   0.006356
     4  N    0.087887  -0.034544  -0.089996   6.595825   0.406531   0.386932
     5  H   -0.045223  -0.017694   0.005789   0.406531   0.543072  -0.044296
     6  H   -0.053227   0.007607   0.006356   0.386932  -0.044296   0.524720
     7  N   -0.019878   0.003125  -0.032176   0.037730  -0.001584  -0.002999
     8  H    0.006430  -0.002374  -0.002809  -0.003303   0.000339  -0.000230
               7          8
     1  N   -0.019878   0.006430
     2  H    0.003125  -0.002374
     3  H   -0.032176  -0.002809
     4  N    0.037730  -0.003303
     5  H   -0.001584   0.000339
     6  H   -0.002999  -0.000230
     7  N    6.972877   0.261346
     8  H    0.261346   0.585526
          Atomic-Atomic Spin Densities.
               1          2          3          4          5          6
     1  N    0.366679   0.006985  -0.030448  -0.011669  -0.001132  -0.005207
     2  H    0.006985  -0.027944   0.016569  -0.010183  -0.000365   0.001120
     3  H   -0.030448   0.016569  -0.159701   0.039037   0.001879  -0.002631
     4  N   -0.011669  -0.010183   0.039037  -0.008887  -0.005603   0.001730
     5  H   -0.001132  -0.000365   0.001879  -0.005603   0.007662   0.003218
     6  H   -0.005207   0.001120  -0.002631   0.001730   0.003218   0.004878
     7  N   -0.015883  -0.000942  -0.019187   0.012310  -0.000786  -0.001381
     8  H   -0.006562   0.002013  -0.000952   0.001912  -0.000349   0.000489
               7          8
     1  N   -0.015883  -0.006562
     2  H   -0.000942   0.002013
     3  H   -0.019187  -0.000952
     4  N    0.012310   0.001912
     5  H   -0.000786  -0.000349
     6  H   -0.001381   0.000489
     7  N    1.950047  -0.003526
     8  H   -0.003526  -0.073647
 Mulliken charges and spin densities:
               1          2
     1  N   -0.371158   0.302763
     2  H    0.136308  -0.012746
     3  H    0.357068  -0.155433
     4  N   -0.387060   0.018646
     5  H    0.153067   0.004524
     6  H    0.175139   0.002215
     7  N   -0.218439   1.920652
     8  H    0.155076  -0.080622
 Sum of Mulliken charges =   0.00000   2.00000
 Mulliken charges and spin densities with hydrogens summed into heavy atoms:
               1          2
     1  N    0.122218   0.134584
     4  N   -0.058855   0.025386
     7  N   -0.063363   1.840030
 Electronic spatial extent (au):  <R**2>=            256.1935
 Charge=              0.0000 electrons
 Dipole moment (field-independent basis, Debye):
    X=             -0.7131    Y=             -0.5186    Z=              2.2636  Tot=              2.4293
 Quadrupole moment (field-independent basis, Debye-Ang):
   XX=            -17.3239   YY=            -21.8925   ZZ=            -17.8238
   XY=             -0.3314   XZ=              1.9895   YZ=              2.1204
 Traceless Quadrupole moment (field-independent basis, Debye-Ang):
   XX=              1.6895   YY=             -2.8791   ZZ=              1.1896
   XY=             -0.3314   XZ=              1.9895   YZ=              2.1204
 Octapole moment (field-independent basis, Debye-Ang**2):
  XXX=            -13.7888  YYY=              0.3640  ZZZ=              2.9220  XYY=              2.4868
  XXY=             -5.0984  XXZ=              7.0347  XZZ=             -2.9177  YZZ=             -1.2880
  YYZ=              2.7984  XYZ=             -3.2711
 Hexadecapole moment (field-independent basis, Debye-Ang**3):
 XXXX=           -241.1816 YYYY=            -59.4205 ZZZZ=            -26.7078 XXXY=              1.5024
 XXXZ=             10.5595 YYYX=             -1.0761 YYYZ=              4.9407 ZZZX=              3.1068
 ZZZY=              2.8508 XXYY=            -48.7827 XXZZ=            -38.4454 YYZZ=            -13.1090
 XXYZ=             -0.0161 YYXZ=              1.0227 ZZXY=              0.3536
 N-N= 7.223056475970D+01 E-N=-5.349423787758D+02  KE= 1.660374914362D+02
 Leave Link  601 at Sat Feb 16 18:36:25 2019, MaxMem=   196608000 cpu:         1.5
 (Enter /cm/shared/c3ddb/gaussian/09.d01/g09/l9999.exe)
 1\1\GINC-NODE004\SP\UMP2-FC\CBSB3\H5N3(3)\DUMINDA\16-Feb-2019\0\\#P Ge
 om=AllCheck Guess=TCheck SCRF=Check MP2/CBSB3 CBSExtrap=(NMin=10,MinPo
 p)\\name\\0,3\N,0,-0.4511401932,0.6686231089,-0.0554952793\H,0,-0.4092
 121011,1.063825668,0.8845452191\H,0,0.6470739966,0.345308326,-0.259778
 1534\N,0,-1.271590543,-0.4787261043,0.0094890023\H,0,-1.9437214164,-0.
 4263445612,0.7660311974\H,0,-1.7666472196,-0.5716549397,-0.8705475038\
 N,0,1.9262582054,-0.1840773796,-0.1382376554\H,0,1.8680931863,-0.75658
 89025,0.7252475018\\Version=AS64L-G09RevD.01\State=3-A\HF=-166.1557607
 \MP2=-166.7437694\E2(CBS)=-0.6492172\CBS-Int=-0.6296891\OIii=4.9419424
 \PUHF=-166.1633576\PMP2-0=-166.7490102\S2=2.045543\S2-1=2.016953\S2A=2
 .000827\RMSD=6.723e-09\PG=C01 [X(H5N3)]\\@


 THERE IS AN OLD, OLD RECIPE IN MAINE FOR STEWING COOT. PLACE THE
 BIRD IN A KETTLE OF WATER WITH A RED BUILDING BRICK FREE OF MORTAR AND
 BLEMISHES. PARBOIL THE COOT AND BRICK TOGETHER FOR THREE HOURS.
 POUR OFF THE WATER, REFILL THE KETTLE, AND AGAIN PARBOIL FOR THREE HOURS.
 ONCE AGAIN POUR OFF THE WATER, FOR THE LAST TIME ADD FRESH WATER,
 AND LET THE COOT AND BRICK SIMMER TOGETHER OVERNIGHT. IN THE MORNING,
 THROW AWAY THE COOT AND EAT THE BRICK.
 Diagonal vibrational polarizability:
        0.0000000       0.0000000       0.0000000
    1 imaginary frequencies ignored.

 Complete Basis Set (CBS) Extrapolation:
 M. R. Nyden and G. A. Petersson, JCP 75, 1843 (1981)
 G. A. Petersson and M. A. Al-Laham, JCP 94, 6081 (1991)
 G. A. Petersson, T. Tensfeldt, and J. A. Montgomery, JCP 94, 6091 (1991)
 J. A. Montgomery, J. W. Ochterski, and G. A. Petersson, JCP 101, 5900 (1994)

 Temperature=               298.150000 Pressure=                       1.000000
 E(ZPE)=                      0.057387 E(Thermal)=                     0.062812
 E(SCF)=                   -166.155761 DE(MP2)=                       -0.588009
 DE(CBS)=                    -0.061209 DE(MP34)=                      -0.039310
 DE(CCSD)=                   -0.017488 DE(Int)=                        0.019528
 DE(Empirical)=              -0.029048
 CBS-QB3 (0 K)=            -166.813908 CBS-QB3 Energy=              -166.808483
 CBS-QB3 Enthalpy=         -166.807539 CBS-QB3 Free Energy=         -166.842402
 1\1\GINC-NODE004\Mixed\CBS-QB3\CBS-QB3\H5N3(3)\DUMINDA\16-Feb-2019\0\\
 #P opt=(ts, noeigentest, calcfc) cbs-qb3 scf=xqc\\name\\0,3\N,0,-0.451
 1401932,0.6686231089,-0.0554952793\H,0,-0.4092121011,1.063825668,0.884
 5452191\H,0,0.6470739966,0.345308326,-0.2597781534\N,0,-1.271590543,-0
 .4787261043,0.0094890023\H,0,-1.9437214164,-0.4263445612,0.7660311974\
 H,0,-1.7666472196,-0.5716549397,-0.8705475038\N,0,1.9262582054,-0.1840
 773796,-0.1382376554\H,0,1.8680931863,-0.7565889025,0.7252475018\\Vers
 ion=AS64L-G09RevD.01\State=3-A\HF/CbsB3=-166.1557607\E2(CBS)/CbsB3=-0.
 6492172\CBS-Int/CbsB3=0.0195281\OIii/CbsB3=4.9419424\MP2/CbsB4=-166.59
 8514\MP4(SDQ)/CbsB4=-166.6378239\MP4(SDQ)/6-31+G(d')=-166.5812235\QCIS
 D(T)/6-31+G(d')=-166.5987111\CBSQB3=-166.8139085\FreqCoord=-0.85253141
 27,1.2635145619,-0.1048708795,-0.7732988014,2.0103391657,1.6715482163,
 1.2227926414,0.6525381676,-0.4909095652,-2.4029578795,-0.9046612298,0.
 0179316157,-3.6731011555,-0.8056744589,1.4475891724,-3.3384794184,-1.0
 802712785,-1.6450963678,3.6401004694,-0.3478558346,-0.26123131,3.53018
 45128,-1.4297458209,1.3705191569\PG=C01 [X(H5N3)]\NImag=1\\0.28385769,
 0.08668698,0.32471923,-0.02830720,0.16303752,0.48139939,-0.04392307,-0
 .01327124,0.00384291,0.05256904,-0.01924636,-0.07288403,-0.09992563,0.
 02371512,0.09969263,0.00165996,-0.15790022,-0.36571433,0.00057499,0.14
 394580,0.36407065,0.00427118,0.03239096,0.01591306,0.00209208,0.004676
 34,-0.00985872,-0.03269633,-0.00225405,-0.05921162,-0.02426171,0.01057
 195,-0.00449979,0.00276545,0.03952725,0.05899290,0.00433971,-0.0115120
 8,-0.03595397,0.02561782,-0.00854412,-0.00805975,-0.01594722,0.0083412
 7,0.06917974,-0.12100639,-0.12258117,0.00165530,-0.00793986,-0.0075561
 6,0.00466318,-0.02185249,-0.02625119,0.00061348,0.48971296,-0.04979885
 ,-0.16296996,-0.03205150,-0.01330444,-0.02085019,0.01227411,-0.0584778
 0,0.02198535,-0.00071126,0.15484650,0.20885754,0.03509508,0.00389596,-
 0.09775561,-0.02633772,-0.03610521,0.00188565,-0.00090490,0.01277406,-
 0.00172177,-0.04320396,0.07151067,0.71107956,-0.01801152,0.00560894,0.
 01224468,0.00050637,0.00016490,-0.00033655,0.00043280,-0.00490598,0.00
 059600,-0.20937433,-0.01164945,0.20135918,0.21447819,-0.03570481,-0.01
 297186,0.02894036,-0.00011342,0.00317333,0.00040601,0.00699635,-0.0056
 7700,0.00145092,0.01729351,-0.02143056,-0.06157704,0.00851065,0.037684
 06,0.00187410,0.00142010,0.00244073,-0.00219724,-0.00038363,0.00358977
 ,-0.00615209,0.00121035,0.00014287,0.17539886,-0.02822722,-0.26780708,
 -0.19619180,0.03076629,0.28374154,-0.00885306,-0.00563585,-0.01607284,
 -0.00208176,-0.00146300,0.00032369,-0.00829274,0.00049593,-0.00228308,
 -0.13246690,-0.03846738,-0.16670471,0.01268552,0.00557172,0.02601416,0
 .13724159,-0.02636579,-0.01763195,-0.03399687,-0.00713558,-0.00487371,
 -0.00009992,0.00716141,-0.00272383,-0.00021583,-0.01403393,-0.01586701
 ,0.01183912,0.00183455,-0.00287897,-0.00377357,0.04049637,0.04284722,-
 0.00182208,-0.00107633,0.01020790,-0.00046320,0.00197803,0.00192148,0.
 00472217,-0.00201215,-0.00029495,-0.14131627,-0.02748734,-0.34715182,-
 0.01806518,0.00120000,-0.02287942,0.15789562,0.02667964,0.35863833,-0.
 09027567,0.01525557,0.01265744,-0.00179268,0.00003566,0.00256492,0.050
 37038,-0.02316262,-0.00274906,0.00165585,0.01616543,-0.00019400,-0.001
 03989,-0.00208384,0.00084777,0.00155845,-0.00193622,-0.00087928,0.0574
 5824,0.04316197,0.00182716,0.00018399,-0.00152345,0.00057275,-0.001104
 79,-0.02581002,-0.00853061,0.00297533,-0.00040601,-0.00813834,-0.00191
 622,0.00058955,0.00171593,-0.00079321,-0.00043269,0.00080655,0.0005506
 6,-0.00309778,0.13043072,-0.01243922,0.00379897,0.00457734,-0.00114048
 ,-0.00123900,0.00195050,0.00666662,-0.00023559,-0.02113754,0.00297438,
 0.00507478,0.00106470,0.00070911,-0.00116648,0.00094765,0.00097705,-0.
 00043556,-0.00039916,-0.02576017,-0.17776379,0.27998416,-0.00605915,0.
 00154581,-0.00193335,0.00056988,-0.00032650,0.00040851,0.00567511,0.00
 597872,-0.01018765,0.00127117,0.00068600,0.00089104,0.00032286,-0.0004
 7017,0.00040624,0.00020890,-0.00002081,-0.00007178,-0.01793468,-0.0124
 8156,0.02801270,0.01594590,0.00352091,-0.00087696,-0.00192615,0.001061
 07,-0.00033099,-0.00028644,-0.00646448,-0.00033539,0.00821577,-0.00131
 156,-0.00158683,-0.00042134,-0.00015317,0.00038506,-0.00021912,-0.0005
 6509,0.00032172,0.00016748,-0.00117618,-0.11868414,0.17196666,0.005088
 51,0.12110755,-0.00040036,-0.00166391,0.00079856,0.00010293,0.00027375
 ,0.00035604,0.00556107,0.00141832,-0.00215463,-0.00078497,-0.00038225,
 0.00040636,-0.00031545,-0.00002006,-0.00017605,-0.00014990,0.00000298,
 -0.00004236,0.01351238,0.17786802,-0.26698764,-0.01752570,-0.17749686,
 0.26779973\\-0.00001500,0.00000141,-0.00000351,-0.00000125,0.00000206,
 -0.00000719,0.00000516,-0.00000197,-0.00000328,0.00000182,0.00000114,0
 .00000657,0.00000138,0.00000182,-0.00000065,0.00000061,-0.00000486,0.0
 0000414,0.00000204,-0.00000346,0.00000387,0.00000523,0.00000386,0.0000
 0006\\\@
 Job cpu time:       0 days  0 hours 16 minutes 28.1 seconds.
 File lengths (MBytes):  RWF=    473 Int=      0 D2E=      0 Chk=      3 Scr=      1
 Normal termination of Gaussian 09 at Sat Feb 16 18:36:25 2019.
