 Entering Gaussian System, Link 0=g09
 Initial command:
 /cm/shared/c3ddb/gaussian/09.d01/g09/l1.exe "/scratch/users/duminda/g09/a1699-7322613/Gau-51739.inp" -scrdir="/scratch/users/duminda/g09/a1699-7322613/"
 Entering Link 1 = /cm/shared/c3ddb/gaussian/09.d01/g09/l1.exe PID=     51740.
  
 Copyright (c) 1988,1990,1992,1993,1995,1998,2003,2009,2013,
            Gaussian, Inc.  All Rights Reserved.
  
 This is part of the Gaussian(R) 09 program.  It is based on
 the Gaussian(R) 03 system (copyright 2003, Gaussian, Inc.),
 the Gaussian(R) 98 system (copyright 1998, Gaussian, Inc.),
 the Gaussian(R) 94 system (copyright 1995, Gaussian, Inc.),
 the Gaussian 92(TM) system (copyright 1992, Gaussian, Inc.),
 the Gaussian 90(TM) system (copyright 1990, Gaussian, Inc.),
 the Gaussian 88(TM) system (copyright 1988, Gaussian, Inc.),
 the Gaussian 86(TM) system (copyright 1986, Carnegie Mellon
 University), and the Gaussian 82(TM) system (copyright 1983,
 Carnegie Mellon University). Gaussian is a federally registered
 trademark of Gaussian, Inc.
  
 This software contains proprietary and confidential information,
 including trade secrets, belonging to Gaussian, Inc.
  
 This software is provided under written license and may be
 used, copied, transmitted, or stored only in accord with that
 written license.
  
 The following legend is applicable only to US Government
 contracts under FAR:
  
                    RESTRICTED RIGHTS LEGEND
  
 Use, reproduction and disclosure by the US Government is
 subject to restrictions as set forth in subparagraphs (a)
 and (c) of the Commercial Computer Software - Restricted
 Rights clause in FAR 52.227-19.
  
 Gaussian, Inc.
 340 Quinnipiac St., Bldg. 40, Wallingford CT 06492
  
  
 ---------------------------------------------------------------
 Warning -- This program may not be used in any manner that
 competes with the business of Gaussian, Inc. or will provide
 assistance to any competitor of Gaussian, Inc.  The licensee
 of this program is prohibited from giving any competitor of
 Gaussian, Inc. access to this program.  By using this program,
 the user acknowledges that Gaussian, Inc. is engaged in the
 business of creating and licensing software in the field of
 computational chemistry and represents and warrants to the
 licensee that it is not a competitor of Gaussian, Inc. and that
 it will not use this program in any manner prohibited above.
 ---------------------------------------------------------------
  

 Cite this work as:
 Gaussian 09, Revision D.01,
 M. J. Frisch, G. W. Trucks, H. B. Schlegel, G. E. Scuseria, 
 M. A. Robb, J. R. Cheeseman, G. Scalmani, V. Barone, B. Mennucci, 
 G. A. Petersson, H. Nakatsuji, M. Caricato, X. Li, H. P. Hratchian, 
 A. F. Izmaylov, J. Bloino, G. Zheng, J. L. Sonnenberg, M. Hada, 
 M. Ehara, K. Toyota, R. Fukuda, J. Hasegawa, M. Ishida, T. Nakajima, 
 Y. Honda, O. Kitao, H. Nakai, T. Vreven, J. A. Montgomery, Jr., 
 J. E. Peralta, F. Ogliaro, M. Bearpark, J. J. Heyd, E. Brothers, 
 K. N. Kudin, V. N. Staroverov, T. Keith, R. Kobayashi, J. Normand, 
 K. Raghavachari, A. Rendell, J. C. Burant, S. S. Iyengar, J. Tomasi, 
 M. Cossi, N. Rega, J. M. Millam, M. Klene, J. E. Knox, J. B. Cross, 
 V. Bakken, C. Adamo, J. Jaramillo, R. Gomperts, R. E. Stratmann, 
 O. Yazyev, A. J. Austin, R. Cammi, C. Pomelli, J. W. Ochterski, 
 R. L. Martin, K. Morokuma, V. G. Zakrzewski, G. A. Voth, 
 P. Salvador, J. J. Dannenberg, S. Dapprich, A. D. Daniels, 
 O. Farkas, J. B. Foresman, J. V. Ortiz, J. Cioslowski, 
 and D. J. Fox, Gaussian, Inc., Wallingford CT, 2013.
 
 ******************************************
 Gaussian 09:  AS64L-G09RevD.01 24-Apr-2013
                16-Feb-2019 
 ******************************************
 %chk=check.chk
 %mem=1500mb
 %nproc=8
 Will use up to    8 processors via shared memory.
 --------------------------------------------------------
 #P opt=calcfc / scf=(tight, direct) int=finegrid scf=xqc
 --------------------------------------------------------
 1/10=4,18=20,19=15,38=1/1,3;
 2/9=110,12=2,17=6,18=5,40=1/2;
 3/11=9,16=1,25=1,30=1,71=2,75=-4,140=1/1,2,3;
 4//1;
 5/5=2,8=3,13=1,32=2,38=5/2,8;
 8/6=4,10=90,11=11/1;
 11/6=1,8=1,9=11,15=111,16=1/1,2,10;
 10/6=1,13=1/2;
 6/7=2,8=2,9=2,10=2,28=1/1;
 7/10=1,18=20,25=1/1,2,3,16;
 1/10=4,18=20,19=15/3(2);
 2/9=110/2;
 99//99;
 2/9=110/2;
 3/11=9,16=1,25=1,30=1,71=1,75=-4/1,2,3;
 4/5=5,16=3,69=1/1;
 5/5=2,8=3,13=1,32=2,38=5/2,8;
 7//1,2,3,16;
 1/18=20,19=15/3(-5);
 2/9=110/2;
 6/7=2,8=2,9=2,10=2,19=2,28=1/1;
 99/9=1/99;
 Leave Link    1 at Sat Feb 16 14:27:46 2019, MaxMem=   196608000 cpu:         0.8
 (Enter /cm/shared/c3ddb/gaussian/09.d01/g09/l101.exe)
 ----
 name
 ----
 Symbolic Z-matrix:
 Charge =  0 Multiplicity = 1
 N                    -0.64633   0.01162  -0.33842 
 N                     0.6304    0.01996   0.36686 
 H                    -1.14746  -0.82632   0.00968 
 H                    -1.21881   0.81457  -0.00985 
 H                     0.53223   0.58123   1.23621 
 H                     1.2712    0.57379  -0.23071 
 
 NAtoms=      6 NQM=        6 NQMF=       0 NMMI=      0 NMMIF=      0
                NMic=       0 NMicF=      0.
                    Isotopes and Nuclear Properties:
 (Nuclear quadrupole moments (NQMom) in fm**2, nuclear magnetic moments (NMagM)
  in nuclear magnetons)

  Atom         1           2           3           4           5           6
 IAtWgt=          14          14           1           1           1           1
 AtmWgt=  14.0030740  14.0030740   1.0078250   1.0078250   1.0078250   1.0078250
 NucSpn=           2           2           1           1           1           1
 AtZEff=   0.0000000   0.0000000   0.0000000   0.0000000   0.0000000   0.0000000
 NQMom=    2.0440000   2.0440000   0.0000000   0.0000000   0.0000000   0.0000000
 NMagM=    0.4037610   0.4037610   2.7928460   2.7928460   2.7928460   2.7928460
 AtZNuc=   7.0000000   7.0000000   1.0000000   1.0000000   1.0000000   1.0000000
 Leave Link  101 at Sat Feb 16 14:27:46 2019, MaxMem=   196608000 cpu:         0.9
 (Enter /cm/shared/c3ddb/gaussian/09.d01/g09/l103.exe)

 GradGradGradGradGradGradGradGradGradGradGradGradGradGradGradGradGradGrad
 Berny optimization.
 Initialization pass.
                           ----------------------------
                           !    Initial Parameters    !
                           ! (Angstroms and Degrees)  !
 --------------------------                            --------------------------
 ! Name  Definition              Value          Derivative Info.                !
 --------------------------------------------------------------------------------
 ! R1    R(1,2)                  1.4586         calculate D2E/DX2 analytically  !
 ! R2    R(1,3)                  1.0366         calculate D2E/DX2 analytically  !
 ! R3    R(1,4)                  1.0394         calculate D2E/DX2 analytically  !
 ! R4    R(2,5)                  1.0394         calculate D2E/DX2 analytically  !
 ! R5    R(2,6)                  1.0366         calculate D2E/DX2 analytically  !
 ! A1    A(2,1,3)              105.3922         calculate D2E/DX2 analytically  !
 ! A2    A(2,1,4)              108.9552         calculate D2E/DX2 analytically  !
 ! A3    A(3,1,4)              104.5984         calculate D2E/DX2 analytically  !
 ! A4    A(1,2,5)              108.9553         calculate D2E/DX2 analytically  !
 ! A5    A(1,2,6)              105.3922         calculate D2E/DX2 analytically  !
 ! A6    A(5,2,6)              104.5984         calculate D2E/DX2 analytically  !
 ! D1    D(3,1,2,5)            -91.493          calculate D2E/DX2 analytically  !
 ! D2    D(3,1,2,6)            156.7321         calculate D2E/DX2 analytically  !
 ! D3    D(4,1,2,5)             20.2818         calculate D2E/DX2 analytically  !
 ! D4    D(4,1,2,6)            -91.4931         calculate D2E/DX2 analytically  !
 --------------------------------------------------------------------------------
 Trust Radius=3.00D-01 FncErr=1.00D-07 GrdErr=1.00D-07
 Number of steps in this run=     25 maximum allowed number of steps=    100.
 GradGradGradGradGradGradGradGradGradGradGradGradGradGradGradGradGradGrad

 Leave Link  103 at Sat Feb 16 14:27:46 2019, MaxMem=   196608000 cpu:         0.1
 (Enter /cm/shared/c3ddb/gaussian/09.d01/g09/l202.exe)
                          Input orientation:                          
 ---------------------------------------------------------------------
 Center     Atomic      Atomic             Coordinates (Angstroms)
 Number     Number       Type             X           Y           Z
 ---------------------------------------------------------------------
      1          7           0       -0.646325    0.011618   -0.338415
      2          7           0        0.630399    0.019961    0.366860
      3          1           0       -1.147462   -0.826315    0.009683
      4          1           0       -1.218809    0.814573   -0.009854
      5          1           0        0.532232    0.581230    1.236209
      6          1           0        1.271203    0.573785   -0.230710
 ---------------------------------------------------------------------
                    Distance matrix (angstroms):
                    1          2          3          4          5
     1  N    0.000000
     2  N    1.458597   0.000000
     3  H    1.036553   2.001137   0.000000
     4  H    1.039436   2.047655   1.642555   0.000000
     5  H    2.047656   1.039436   2.511358   2.161774   0.000000
     6  H    2.001136   1.036552   2.804997   2.511357   1.642554
                    6
     6  H    0.000000
 Stoichiometry    H4N2
 Framework group  C1[X(H4N2)]
 Deg. of freedom    12
 Full point group                 C1      NOp   1
 Largest Abelian subgroup         C1      NOp   1
 Largest concise Abelian subgroup C1      NOp   1
                         Standard orientation:                         
 ---------------------------------------------------------------------
 Center     Atomic      Atomic             Coordinates (Angstroms)
 Number     Number       Type             X           Y           Z
 ---------------------------------------------------------------------
      1          7           0       -0.720207   -0.085132   -0.114797
      2          7           0        0.720207   -0.085131    0.114798
      3          1           0       -1.145982   -0.286660    0.808536
      4          1           0       -1.026391    0.882580   -0.338879
      5          1           0        1.026392    0.882582    0.338873
      6          1           0        1.145982   -0.286667   -0.808533
 ---------------------------------------------------------------------
 Rotational constants (GHZ):    135.2141492     23.8211911     23.7624965
 Leave Link  202 at Sat Feb 16 14:27:46 2019, MaxMem=   196608000 cpu:         0.3
 (Enter /cm/shared/c3ddb/gaussian/09.d01/g09/l301.exe)
 Standard basis: STO-3G (5D, 7F)
 Ernie: Thresh=  0.10000D-02 Tol=  0.10000D-05 Strict=F.
 There are    14 symmetry adapted cartesian basis functions of A   symmetry.
 There are    14 symmetry adapted basis functions of A   symmetry.
    14 basis functions,    42 primitive gaussians,    14 cartesian basis functions
     9 alpha electrons        9 beta electrons
       nuclear repulsion energy        40.8711422258 Hartrees.
 IExCor=    0 DFT=F Ex=HF Corr=None ExCW=0 ScaHFX=  1.000000
 ScaDFX=  1.000000  1.000000  1.000000  1.000000 ScalE2=  1.000000  1.000000
 IRadAn=      4 IRanWt=     -1 IRanGd=            0 ICorTp=0 IEmpDi=  4
 NAtoms=    6 NActive=    6 NUniq=    6 SFac= 1.00D+00 NAtFMM=   60 NAOKFM=F Big=F
 Integral buffers will be    131072 words long.
 Raffenetti 1 integral format.
 Two-electron integral symmetry is turned on.
 Leave Link  301 at Sat Feb 16 14:27:47 2019, MaxMem=   196608000 cpu:         0.8
 (Enter /cm/shared/c3ddb/gaussian/09.d01/g09/l302.exe)
 NPDir=0 NMtPBC=     1 NCelOv=     1 NCel=       1 NClECP=     1 NCelD=      1
         NCelK=      1 NCelE2=     1 NClLst=     1 CellRange=     0.0.
 One-electron integrals computed using PRISM.
 NBasis=    14 RedAO= T EigKep=  2.75D-01  NBF=    14
 NBsUse=    14 1.00D-06 EigRej= -1.00D+00 NBFU=    14
 Leave Link  302 at Sat Feb 16 14:27:47 2019, MaxMem=   196608000 cpu:         2.2
 (Enter /cm/shared/c3ddb/gaussian/09.d01/g09/l303.exe)
 DipDrv:  MaxL=1.
 Leave Link  303 at Sat Feb 16 14:27:47 2019, MaxMem=   196608000 cpu:         0.6
 (Enter /cm/shared/c3ddb/gaussian/09.d01/g09/l401.exe)
 ExpMin= 1.69D-01 ExpMax= 9.91D+01 ExpMxC= 9.91D+01 IAcc=2 IRadAn=         4 AccDes= 0.00D+00
 Harris functional with IExCor=  205 and IRadAn=       4 diagonalized for initial guess.
 HarFok:  IExCor=  205 AccDes= 0.00D+00 IRadAn=         4 IDoV= 1 UseB2=F ITyADJ=14
 ICtDFT=  3500011 ScaDFX=  1.000000  1.000000  1.000000  1.000000
 FoFCou: FMM=F IPFlag=           0 FMFlag=      100000 FMFlg1=           0
         NFxFlg=           0 DoJE=T BraDBF=F KetDBF=T FulRan=T
         wScrn=  0.000000 ICntrl=     500 IOpCl=  0 I1Cent=   200000004 NGrid=           0
         NMat0=    1 NMatS0=      1 NMatT0=    0 NMatD0=    1 NMtDS0=    0 NMtDT0=    0
 Petite list used in FoFCou.
 Harris En= -109.866681564158    
 JPrj=0 DoOrth=F DoCkMO=F.
 Leave Link  401 at Sat Feb 16 14:27:48 2019, MaxMem=   196608000 cpu:         3.9
 (Enter /cm/shared/c3ddb/gaussian/09.d01/g09/l502.exe)
 Closed shell SCF:
 Using DIIS extrapolation, IDIIS=  1040.
 Integral symmetry usage will be decided dynamically.
 Keep R1 ints in memory in canonical form, NReq=819005.
 IVT=        7593 IEndB=        7593 NGot=   196608000 MDV=   196594843
 LenX=   196594843 LenY=   196593961
 Requested convergence on RMS density matrix=1.00D-08 within  64 cycles.
 Requested convergence on MAX density matrix=1.00D-06.
 Requested convergence on             energy=1.00D-06.
 No special actions if energy rises.
 FoFCou: FMM=F IPFlag=           0 FMFlag=           0 FMFlg1=           0
         NFxFlg=           0 DoJE=F BraDBF=F KetDBF=F FulRan=T
         wScrn=  0.000000 ICntrl=     600 IOpCl=  0 I1Cent=           0 NGrid=           0
         NMat0=    1 NMatS0=    105 NMatT0=    0 NMatD0=    1 NMtDS0=    0 NMtDT0=    0
 Symmetry not used in FoFCou.

 Cycle   1  Pass 1  IDiag  1:
 E= -109.703784731814    
 DIIS: error= 4.27D-02 at cycle   1 NSaved=   1.
 NSaved= 1 IEnMin= 1 EnMin= -109.703784731814     IErMin= 1 ErrMin= 4.27D-02
 ErrMax= 4.27D-02  0.00D+00 EMaxC= 1.00D-01 BMatC= 3.93D-02 BMatP= 3.93D-02
 IDIUse=3 WtCom= 5.73D-01 WtEn= 4.27D-01
 Coeff-Com:  0.100D+01
 Coeff-En:   0.100D+01
 Coeff:      0.100D+01
 Gap=     0.957 Goal=   None    Shift=    0.000
 GapD=    0.957 DampG=2.000 DampE=0.500 DampFc=1.0000 IDamp=-1.
 RMSDP=1.90D-02 MaxDP=8.76D-02              OVMax= 0.00D+00

 Cycle   2  Pass 1  IDiag  1:
 E= -109.747197987685     Delta-E=       -0.043413255871 Rises=F Damp=F
 DIIS: error= 6.32D-03 at cycle   2 NSaved=   2.
 NSaved= 2 IEnMin= 2 EnMin= -109.747197987685     IErMin= 2 ErrMin= 6.32D-03
 ErrMax= 6.32D-03  0.00D+00 EMaxC= 1.00D-01 BMatC= 6.08D-04 BMatP= 3.93D-02
 IDIUse=3 WtCom= 9.37D-01 WtEn= 6.32D-02
 Coeff-Com:  0.441D-01 0.956D+00
 Coeff-En:   0.000D+00 0.100D+01
 Coeff:      0.413D-01 0.959D+00
 Gap=     0.927 Goal=   None    Shift=    0.000
 RMSDP=2.61D-03 MaxDP=8.49D-03 DE=-4.34D-02 OVMax= 0.00D+00

 Cycle   3  Pass 1  IDiag  1:
 E= -109.748000453702     Delta-E=       -0.000802466017 Rises=F Damp=F
 DIIS: error= 9.12D-04 at cycle   3 NSaved=   3.
 NSaved= 3 IEnMin= 3 EnMin= -109.748000453702     IErMin= 3 ErrMin= 9.12D-04
 ErrMax= 9.12D-04  0.00D+00 EMaxC= 1.00D-01 BMatC= 2.16D-05 BMatP= 6.08D-04
 IDIUse=3 WtCom= 9.91D-01 WtEn= 9.12D-03
 Coeff-Com: -0.145D-01-0.868D-01 0.110D+01
 Coeff-En:   0.000D+00 0.000D+00 0.100D+01
 Coeff:     -0.144D-01-0.860D-01 0.110D+01
 Gap=     0.919 Goal=   None    Shift=    0.000
 RMSDP=7.29D-04 MaxDP=1.87D-03 DE=-8.02D-04 OVMax= 0.00D+00

 Cycle   4  Pass 1  IDiag  1:
 E= -109.748052072998     Delta-E=       -0.000051619296 Rises=F Damp=F
 DIIS: error= 2.76D-04 at cycle   4 NSaved=   4.
 NSaved= 4 IEnMin= 4 EnMin= -109.748052072998     IErMin= 4 ErrMin= 2.76D-04
 ErrMax= 2.76D-04  0.00D+00 EMaxC= 1.00D-01 BMatC= 1.45D-06 BMatP= 2.16D-05
 IDIUse=3 WtCom= 9.97D-01 WtEn= 2.76D-03
 Coeff-Com:  0.271D-02 0.177D-02-0.346D+00 0.134D+01
 Coeff-En:   0.000D+00 0.000D+00 0.000D+00 0.100D+01
 Coeff:      0.270D-02 0.177D-02-0.345D+00 0.134D+01
 Gap=     0.919 Goal=   None    Shift=    0.000
 RMSDP=3.06D-04 MaxDP=8.89D-04 DE=-5.16D-05 OVMax= 0.00D+00

 Cycle   5  Pass 1  IDiag  1:
 E= -109.748056799147     Delta-E=       -0.000004726149 Rises=F Damp=F
 DIIS: error= 6.85D-05 at cycle   5 NSaved=   5.
 NSaved= 5 IEnMin= 5 EnMin= -109.748056799147     IErMin= 5 ErrMin= 6.85D-05
 ErrMax= 6.85D-05  0.00D+00 EMaxC= 1.00D-01 BMatC= 5.35D-08 BMatP= 1.45D-06
 IDIUse=1 WtCom= 1.00D+00 WtEn= 0.00D+00
 Coeff-Com: -0.113D-02 0.263D-02 0.158D+00-0.731D+00 0.157D+01
 Coeff:     -0.113D-02 0.263D-02 0.158D+00-0.731D+00 0.157D+01
 Gap=     0.919 Goal=   None    Shift=    0.000
 RMSDP=7.47D-05 MaxDP=3.82D-04 DE=-4.73D-06 OVMax= 0.00D+00

 Cycle   6  Pass 1  IDiag  1:
 E= -109.748056976494     Delta-E=       -0.000000177347 Rises=F Damp=F
 DIIS: error= 3.14D-06 at cycle   6 NSaved=   6.
 NSaved= 6 IEnMin= 6 EnMin= -109.748056976494     IErMin= 6 ErrMin= 3.14D-06
 ErrMax= 3.14D-06  0.00D+00 EMaxC= 1.00D-01 BMatC= 1.74D-10 BMatP= 5.35D-08
 IDIUse=1 WtCom= 1.00D+00 WtEn= 0.00D+00
 Coeff-Com:  0.405D-03-0.980D-03-0.567D-01 0.264D+00-0.583D+00 0.138D+01
 Coeff:      0.405D-03-0.980D-03-0.567D-01 0.264D+00-0.583D+00 0.138D+01
 Gap=     0.919 Goal=   None    Shift=    0.000
 RMSDP=2.88D-06 MaxDP=7.52D-06 DE=-1.77D-07 OVMax= 0.00D+00

 Cycle   7  Pass 1  IDiag  1:
 E= -109.748056977033     Delta-E=       -0.000000000540 Rises=F Damp=F
 DIIS: error= 7.12D-07 at cycle   7 NSaved=   7.
 NSaved= 7 IEnMin= 7 EnMin= -109.748056977033     IErMin= 7 ErrMin= 7.12D-07
 ErrMax= 7.12D-07  0.00D+00 EMaxC= 1.00D-01 BMatC= 6.57D-12 BMatP= 1.74D-10
 IDIUse=1 WtCom= 1.00D+00 WtEn= 0.00D+00
 Coeff-Com: -0.123D-03 0.287D-03 0.171D-01-0.797D-01 0.177D+00-0.513D+00
 Coeff-Com:  0.140D+01
 Coeff:     -0.123D-03 0.287D-03 0.171D-01-0.797D-01 0.177D+00-0.513D+00
 Coeff:      0.140D+01
 Gap=     0.919 Goal=   None    Shift=    0.000
 RMSDP=6.12D-07 MaxDP=1.52D-06 DE=-5.40D-10 OVMax= 0.00D+00

 Cycle   8  Pass 1  IDiag  1:
 E= -109.748056977056     Delta-E=       -0.000000000022 Rises=F Damp=F
 DIIS: error= 1.19D-07 at cycle   8 NSaved=   8.
 NSaved= 8 IEnMin= 8 EnMin= -109.748056977056     IErMin= 8 ErrMin= 1.19D-07
 ErrMax= 1.19D-07  0.00D+00 EMaxC= 1.00D-01 BMatC= 1.80D-13 BMatP= 6.57D-12
 IDIUse=1 WtCom= 1.00D+00 WtEn= 0.00D+00
 Coeff-Com:  0.111D-04-0.233D-04-0.150D-02 0.694D-02-0.156D-01 0.551D-01
 Coeff-Com: -0.319D+00 0.127D+01
 Coeff:      0.111D-04-0.233D-04-0.150D-02 0.694D-02-0.156D-01 0.551D-01
 Coeff:     -0.319D+00 0.127D+01
 Gap=     0.919 Goal=   None    Shift=    0.000
 RMSDP=1.10D-07 MaxDP=2.79D-07 DE=-2.23D-11 OVMax= 0.00D+00

 Cycle   9  Pass 1  IDiag  1:
 E= -109.748056977056     Delta-E=       -0.000000000001 Rises=F Damp=F
 DIIS: error= 9.75D-09 at cycle   9 NSaved=   9.
 NSaved= 9 IEnMin= 9 EnMin= -109.748056977056     IErMin= 9 ErrMin= 9.75D-09
 ErrMax= 9.75D-09  0.00D+00 EMaxC= 1.00D-01 BMatC= 2.30D-15 BMatP= 1.80D-13
 IDIUse=1 WtCom= 1.00D+00 WtEn= 0.00D+00
 Coeff-Com: -0.106D-05 0.155D-05 0.131D-03-0.594D-03 0.139D-02-0.748D-02
 Coeff-Com:  0.792D-01-0.409D+00 0.134D+01
 Coeff:     -0.106D-05 0.155D-05 0.131D-03-0.594D-03 0.139D-02-0.748D-02
 Coeff:      0.792D-01-0.409D+00 0.134D+01
 Gap=     0.919 Goal=   None    Shift=    0.000
 RMSDP=9.08D-09 MaxDP=2.55D-08 DE=-7.11D-13 OVMax= 0.00D+00

 SCF Done:  E(RHF) =  -109.748056977     A.U. after    9 cycles
            NFock=  9  Conv=0.91D-08     -V/T= 2.0093
 KE= 1.087323895748D+02 PE=-3.394107864327D+02 EE= 8.005919765508D+01
 Leave Link  502 at Sat Feb 16 14:27:51 2019, MaxMem=   196608000 cpu:        16.0
 (Enter /cm/shared/c3ddb/gaussian/09.d01/g09/l508.exe)
 QCSCF skips out because SCF is already converged.
 Leave Link  508 at Sat Feb 16 14:27:51 2019, MaxMem=   196608000 cpu:         0.0
 (Enter /cm/shared/c3ddb/gaussian/09.d01/g09/l801.exe)
 Range of M.O.s used for correlation:     1    14
 NBasis=    14 NAE=     9 NBE=     9 NFC=     0 NFV=     0
 NROrb=     14 NOA=     9 NOB=     9 NVA=     5 NVB=     5
 Leave Link  801 at Sat Feb 16 14:27:51 2019, MaxMem=   196608000 cpu:         0.2
 (Enter /cm/shared/c3ddb/gaussian/09.d01/g09/l1101.exe)
 Using compressed storage, NAtomX=     6.
 Will process      7 centers per pass.
 Leave Link 1101 at Sat Feb 16 14:27:51 2019, MaxMem=   196608000 cpu:         2.5
 (Enter /cm/shared/c3ddb/gaussian/09.d01/g09/l1102.exe)
 Symmetrizing basis deriv contribution to polar:
 IMax=3 JMax=2 DiffMx= 0.00D+00
 Leave Link 1102 at Sat Feb 16 14:27:51 2019, MaxMem=   196608000 cpu:         0.5
 (Enter /cm/shared/c3ddb/gaussian/09.d01/g09/l1110.exe)
 Forming Gx(P) for the SCF density, NAtomX=     6.
 Integral derivatives from FoFJK, PRISM(SPDF).
 Do as many integral derivatives as possible in FoFJK.
 G2DrvN: MDV=     196607848.
 G2DrvN: will do     7 centers at a time, making    1 passes.
 Calling FoFCou, ICntrl=  3107 FMM=F I1Cent=   0 AccDes= 0.00D+00.
 FoFJK:  IHMeth= 1 ICntrl=    3107 DoSepK=F KAlg= 0 I1Cent=   0 FoldK=F
 IRaf=         0 NMat=   1 IRICut=       1 DoRegI=T DoRafI=F ISym2E= 0.
 FoFCou: FMM=F IPFlag=           0 FMFlag=      100000 FMFlg1=           0
         NFxFlg=           0 DoJE=F BraDBF=F KetDBF=F FulRan=T
         wScrn=  0.000000 ICntrl=    3107 IOpCl=  0 I1Cent=           0 NGrid=           0
         NMat0=    1 NMatS0=      1 NMatT0=    0 NMatD0=    1 NMtDS0=    0 NMtDT0=    0
 Symmetry not used in FoFCou.
 End of G2Drv F.D. properties file   721 does not exist.
 End of G2Drv F.D. properties file   722 does not exist.
 End of G2Drv F.D. properties file   788 does not exist.
 Leave Link 1110 at Sat Feb 16 14:27:52 2019, MaxMem=   196608000 cpu:         2.5
 (Enter /cm/shared/c3ddb/gaussian/09.d01/g09/l1002.exe)
 Minotr:  Closed shell wavefunction.
          IDoAtm=111111
          Direct CPHF calculation.
          Differentiating once with respect to nuclear coordinates.
          Requested convergence is 1.0D-08 RMS, and 1.0D-07 maximum.
          Secondary convergence is 1.0D-12 RMS, and 1.0D-12 maximum.
          NewPWx=T KeepS1=F KeepF1=F KeepIn=T MapXYZ=F SortEE=F KeepMc=T.
          MDV=     196607922 using IRadAn=       2.
 Keep R1 ints in memory in canonical form, NReq=814220.
 FoFCou: FMM=F IPFlag=           0 FMFlag=           0 FMFlg1=           0
         NFxFlg=           0 DoJE=F BraDBF=F KetDBF=F FulRan=T
         wScrn=  0.000000 ICntrl=     600 IOpCl=  0 I1Cent=           0 NGrid=           0
         NMat0=    1 NMatS0=    105 NMatT0=    0 NMatD0=    1 NMtDS0=    0 NMtDT0=    0
 Symmetry not used in FoFCou.
          Solving linear equations simultaneously, MaxMat=       0.
          There are    21 degrees of freedom in the 1st order CPHF.  IDoFFX=6 NUNeed=     0.
     15 vectors produced by pass  0 Test12= 2.14D-16 4.76D-09 XBig12= 2.75D-02 9.67D-02.
 AX will form    15 AO Fock derivatives at one time.
     15 vectors produced by pass  1 Test12= 2.14D-16 4.76D-09 XBig12= 1.03D-04 4.60D-03.
     13 vectors produced by pass  2 Test12= 2.14D-16 4.76D-09 XBig12= 2.73D-07 1.85D-04.
      2 vectors produced by pass  3 Test12= 2.14D-16 4.76D-09 XBig12= 1.10D-10 6.48D-06.
 InvSVY:  IOpt=1 It=  1 EMax= 1.11D-15
 Solved reduced A of dimension    45 with    15 vectors.
 End of Minotr F.D. properties file   721 does not exist.
 End of Minotr F.D. properties file   722 does not exist.
 End of Minotr F.D. properties file   788 does not exist.
 Leave Link 1002 at Sat Feb 16 14:27:54 2019, MaxMem=   196608000 cpu:        10.6
 (Enter /cm/shared/c3ddb/gaussian/09.d01/g09/l601.exe)
 Copying SCF densities to generalized density rwf, IOpCl= 0 IROHF=0.

 **********************************************************************

            Population analysis using the SCF density.

 **********************************************************************

 Orbital symmetries:
       Occupied  (A) (A) (A) (A) (A) (A) (A) (A) (A)
       Virtual   (A) (A) (A) (A) (A)
 The electronic state is 1-A.
 Alpha  occ. eigenvalues --  -15.34992 -15.34924  -1.19637  -0.95493  -0.60843
 Alpha  occ. eigenvalues --   -0.59710  -0.52833  -0.35581  -0.33988
 Alpha virt. eigenvalues --    0.57910   0.58607   0.65329   0.68971   0.73313
          Condensed to atoms (all electrons):
               1          2          3          4          5          6
     1  N    6.429467   0.275289   0.330547   0.325507  -0.024945  -0.032548
     2  N    0.275289   6.429468  -0.032547  -0.024945   0.325507   0.330548
     3  H    0.330547  -0.032547   0.575632  -0.039245   0.000947   0.003236
     4  H    0.325507  -0.024945  -0.039245   0.603243  -0.007393   0.000947
     5  H   -0.024945   0.325507   0.000947  -0.007393   0.603243  -0.039245
     6  H   -0.032548   0.330548   0.003236   0.000947  -0.039245   0.575631
 Mulliken charges:
               1
     1  N   -0.303318
     2  N   -0.303319
     3  H    0.161432
     4  H    0.141887
     5  H    0.141887
     6  H    0.161432
 Sum of Mulliken charges =   0.00000
 Mulliken charges with hydrogens summed into heavy atoms:
               1
     1  N    0.000000
     2  N    0.000000
 APT charges:
               1
     1  N   -0.786493
     2  N   -0.786494
     3  H    0.405814
     4  H    0.380680
     5  H    0.380680
     6  H    0.405814
 Sum of APT charges =   0.00000
 APT charges with hydrogens summed into heavy atoms:
               1
     1  N    0.000000
     2  N    0.000000
 Electronic spatial extent (au):  <R**2>=             81.9427
 Charge=              0.0000 electrons
 Dipole moment (field-independent basis, Debye):
    X=              0.0000    Y=              2.2220    Z=              0.0000  Tot=              2.2220
 Quadrupole moment (field-independent basis, Debye-Ang):
   XX=            -11.7067   YY=            -11.8113   ZZ=            -12.0529
   XY=              0.0000   XZ=             -2.5501   YZ=              0.0000
 Traceless Quadrupole moment (field-independent basis, Debye-Ang):
   XX=              0.1503   YY=              0.0457   ZZ=             -0.1960
   XY=              0.0000   XZ=             -2.5501   YZ=              0.0000
 Octapole moment (field-independent basis, Debye-Ang**2):
  XXX=              0.0000  YYY=              1.9083  ZZZ=              0.0000  XYY=              0.0000
  XXY=              2.1403  XXZ=              0.0000  XZZ=              0.0000  YZZ=              0.1413
  YYZ=              0.0000  XYZ=              1.5603
 Hexadecapole moment (field-independent basis, Debye-Ang**3):
 XXXX=            -55.9691 YYYY=            -14.6652 ZZZZ=            -14.6610 XXXY=              0.0000
 XXXZ=             -3.3048 YYYX=              0.0000 YYYZ=              0.0000 ZZZX=             -2.2475
 ZZZY=              0.0000 XXYY=            -11.4593 XXZZ=            -11.1788 YYZZ=             -5.0976
 XXYZ=              0.0000 YYXZ=              0.0014 ZZXY=              0.0000
 N-N= 4.087114222578D+01 E-N=-3.394107863992D+02  KE= 1.087323895748D+02
  Exact polarizability:   0.000   0.000   0.000   0.000   0.000   0.000
 Approx polarizability:   7.475   0.000   6.046  -1.249   0.000   5.637
 No NMR shielding tensors so no spin-rotation constants.
 Leave Link  601 at Sat Feb 16 14:27:54 2019, MaxMem=   196608000 cpu:         3.0
 (Enter /cm/shared/c3ddb/gaussian/09.d01/g09/l701.exe)
 Compute integral second derivatives.
 ... and contract with generalized density number  0.
 Leave Link  701 at Sat Feb 16 14:27:55 2019, MaxMem=   196608000 cpu:         3.4
 (Enter /cm/shared/c3ddb/gaussian/09.d01/g09/l702.exe)
 L702 exits ... SP integral derivatives will be done elsewhere.
 Leave Link  702 at Sat Feb 16 14:27:55 2019, MaxMem=   196608000 cpu:         0.2
 (Enter /cm/shared/c3ddb/gaussian/09.d01/g09/l703.exe)
 Compute integral second derivatives, UseDBF=F ICtDFT=           0.
 Integral derivatives from FoFJK, PRISM(SPDF).
 Calling FoFJK, ICntrl=    100147 FMM=F ISym2X=0 I1Cent= 0 IOpClX= 0 NMat=1 NMatS=1 NMatT=0.
 FoFJK:  IHMeth= 1 ICntrl=  100147 DoSepK=F KAlg= 0 I1Cent=   0 FoldK=F
 IRaf=         0 NMat=   1 IRICut=       1 DoRegI=T DoRafI=F ISym2E= 0.
 FoFCou: FMM=F IPFlag=           0 FMFlag=      100000 FMFlg1=         800
         NFxFlg=           0 DoJE=F BraDBF=F KetDBF=F FulRan=T
         wScrn=  0.000000 ICntrl=  100147 IOpCl=  0 I1Cent=           0 NGrid=           0
         NMat0=    1 NMatS0=      1 NMatT0=    0 NMatD0=    1 NMtDS0=    0 NMtDT0=    0
 Symmetry not used in FoFCou.
 Leave Link  703 at Sat Feb 16 14:27:55 2019, MaxMem=   196608000 cpu:         2.5
 (Enter /cm/shared/c3ddb/gaussian/09.d01/g09/l716.exe)
 Dipole        = 2.68348453D-07 8.74184926D-01-3.34396159D-06
 Polarizability= 0.00000000D+00 0.00000000D+00 0.00000000D+00
                 0.00000000D+00 0.00000000D+00 0.00000000D+00
 ***** Axes restored to original set *****
 -------------------------------------------------------------------
 Center     Atomic                   Forces (Hartrees/Bohr)
 Number     Number              X              Y              Z
 -------------------------------------------------------------------
      1        7           0.000048996   -0.000004961    0.000043283
      2        7          -0.000053705    0.000013405   -0.000034954
      3        1          -0.000010277   -0.000014463   -0.000002140
      4        1          -0.000021084    0.000012850   -0.000023629
      5        1           0.000019791   -0.000010487    0.000025547
      6        1           0.000016279    0.000003656   -0.000008107
 -------------------------------------------------------------------
 Cartesian Forces:  Max     0.000053705 RMS     0.000025353
 Force constants in Cartesian coordinates: 
                1             2             3             4             5 
      1  0.776229D+00
      2  0.186352D-01  0.849939D+00
      3 -0.747841D-02  0.305300D-03  0.321663D+00
      4 -0.338972D+00  0.332842D-01 -0.750818D-01  0.719270D+00
      5 -0.571230D-01 -0.932143D-01 -0.254674D-01  0.178157D+00  0.436642D+00
      6 -0.174091D+00  0.144515D-01 -0.155669D+00 -0.882460D-01  0.866214D-01
      7 -0.182258D+00 -0.177621D+00  0.558392D-01 -0.275619D-01 -0.333898D-01
      8 -0.160463D+00 -0.389764D+00  0.105718D+00  0.296755D-02  0.992332D-02
      9  0.101500D+00  0.196306D+00 -0.874410D-01 -0.239881D-01 -0.269739D-01
     10 -0.212821D+00  0.187778D+00  0.580032D-01 -0.359273D-01  0.324613D-01
     11  0.169579D+00 -0.356921D+00 -0.925889D-01 -0.541810D-02  0.856468D-02
     12  0.112778D+00 -0.179694D+00 -0.802250D-01 -0.374472D-01  0.222495D-01
     13 -0.128707D-01 -0.290154D-01 -0.514174D-01 -0.915542D-01  0.154480D-01
     14  0.155996D-01 -0.453931D-02  0.127146D-01  0.927310D-02 -0.182067D+00
     15 -0.619490D-02 -0.152881D-01 -0.169347D-01  0.464717D-01 -0.177613D+00
     16 -0.293074D-01 -0.330616D-01  0.201353D-01 -0.225255D+00 -0.135554D+00
     17  0.137725D-01 -0.550087D-02 -0.681646D-03 -0.218264D+00 -0.179849D+00
     18 -0.265135D-01 -0.160811D-01  0.186063D-01  0.178291D+00  0.121184D+00
                6             7             8             9            10 
      6  0.791920D+00
      7  0.241046D-01  0.200917D+00
      8  0.420150D-02  0.182480D+00  0.407039D+00
      9  0.143668D-02 -0.670078D-01 -0.138189D+00  0.910681D-01
     10  0.154461D-01  0.165577D-01 -0.287494D-01 -0.480917D-02  0.228085D+00
     11 -0.198228D-02  0.327873D-01 -0.277209D-01 -0.290427D-01 -0.193651D+00
     12 -0.698220D-02 -0.661792D-02  0.278172D-01 -0.257638D-02 -0.707377D-01
     13  0.734878D-01  0.312180D-03  0.177689D-02 -0.260458D-02  0.533297D-02
     14 -0.278364D+00 -0.190732D-02 -0.826696D-03 -0.196617D-02 -0.629845D-03
     15 -0.376345D+00  0.617124D-03  0.512804D-03 -0.114437D-02  0.410175D-02
     16  0.149299D+00 -0.796772D-02  0.198832D-02 -0.309021D-02 -0.122830D-02
     17  0.175072D+00 -0.234906D-02  0.134939D-02 -0.134111D-03  0.279062D-02
     18 -0.254361D+00 -0.693512D-02 -0.602373D-04 -0.134295D-02 -0.200415D-02
               11            12            13            14            15 
     11  0.372907D+00
     12  0.124592D+00  0.857260D-01
     13 -0.307451D-02 -0.376438D-03  0.987911D-01
     14  0.311259D-02  0.436487D-02 -0.141019D-01  0.177442D+00
     15 -0.377938D-03  0.454613D-02 -0.461738D-01  0.223698D+00  0.410484D+00
     16 -0.222314D-03  0.240110D-02 -0.113370D-04 -0.823359D-02  0.117812D-02
     17  0.579375D-04  0.670385D-03  0.289669D-01  0.687832D-02 -0.309312D-01
     18 -0.600053D-03 -0.488529D-03  0.270845D-01  0.395534D-01 -0.206066D-01
               16            17            18 
     16  0.263769D+00
     17  0.175083D+00  0.177064D+00
     18 -0.169923D+00 -0.143996D+00  0.258193D+00
 FormGI is forming the generalized inverse of G from B-inverse, IUseBI=4.
 Force constants in internal coordinates: 
                1             2             3             4             5 
      1  0.525862D+00
      2 -0.473369D-02  0.562650D+00
      3 -0.658487D-02 -0.163404D-01  0.550540D+00
      4 -0.658487D-02 -0.182901D-03  0.181186D-02  0.550539D+00
      5 -0.473371D-02 -0.954907D-03 -0.182903D-03 -0.163404D-01  0.562652D+00
      6  0.599615D-01  0.103007D-01  0.920786D-02  0.328969D-02  0.521839D-02
      7  0.640418D-01  0.109235D-01  0.616976D-02 -0.117305D-01 -0.575190D-02
      8 -0.204595D-01  0.115553D-01  0.126233D-01  0.114628D-02 -0.813728D-03
      9  0.640416D-01 -0.575190D-02 -0.117305D-01  0.616977D-02  0.109235D-01
     10  0.599615D-01  0.521838D-02  0.328970D-02  0.920783D-02  0.103007D-01
     11 -0.204596D-01 -0.813733D-03  0.114629D-02  0.126233D-01  0.115553D-01
     12  0.210137D-02 -0.116870D-01 -0.135673D-01  0.101508D-01  0.121182D-01
     13 -0.310593D-01 -0.107666D-01 -0.113688D-01 -0.113689D-01 -0.107666D-01
     14  0.352621D-01  0.111978D-01  0.795227D-02  0.795228D-02  0.111979D-01
     15  0.210135D-02  0.121182D-01  0.101508D-01 -0.135673D-01 -0.116870D-01
                6             7             8             9            10 
      6  0.249342D+00
      7 -0.389229D-01  0.259907D+00
      8 -0.711722D-01 -0.685091D-01  0.852658D-01
      9  0.162695D-02 -0.110536D-01  0.356850D-02  0.259907D+00
     10  0.284279D-01  0.162700D-02 -0.112104D-01 -0.389231D-01  0.249341D+00
     11 -0.112104D-01  0.356850D-02  0.259495D-02 -0.685091D-01 -0.711723D-01
     12 -0.984007D-02 -0.843654D-02 -0.174376D-01  0.723781D-02  0.100482D-01
     13 -0.113744D-01 -0.850194D-02 -0.165717D-01 -0.850187D-02 -0.113744D-01
     14  0.115825D-01  0.730325D-02  0.161465D-01  0.730319D-02  0.115826D-01
     15  0.100482D-01  0.723785D-02  0.170124D-01 -0.843649D-02 -0.984008D-02
               11            12            13            14            15 
     11  0.852658D-01
     12  0.170124D-01  0.286164D-01
     13 -0.165717D-01  0.121459D-02  0.292973D-01
     14  0.161465D-01  0.308650D-03 -0.268682D-01  0.274855D-01
     15 -0.174376D-01 -0.270932D-01  0.121455D-02  0.308681D-03  0.286164D-01
 Leave Link  716 at Sat Feb 16 14:27:55 2019, MaxMem=   196608000 cpu:         0.9
 (Enter /cm/shared/c3ddb/gaussian/09.d01/g09/l103.exe)

 GradGradGradGradGradGradGradGradGradGradGradGradGradGradGradGradGradGrad
 Berny optimization.
 Red2BG is reusing G-inverse.
 Internal  Forces:  Max     0.000051053 RMS     0.000023217
 Search for a local minimum.
 Step number   1 out of a maximum of   25
 All quantities printed in internal units (Hartrees-Bohrs-Radians)
 RMS Force = .23217D-04 SwitMx=.10000D-02 MixMth= 2
 Mixed Optimization -- En-DIIS/RFO-DIIS
 Second derivative matrix not updated -- analytic derivatives used.
 The second derivative matrix:
                          R1        R2        R3        R4        R5
           R1           0.52586
           R2          -0.00473   0.56265
           R3          -0.00658  -0.01634   0.55054
           R4          -0.00658  -0.00018   0.00181   0.55054
           R5          -0.00473  -0.00095  -0.00018  -0.01634   0.56265
           A1           0.05996   0.01030   0.00921   0.00329   0.00522
           A2           0.06404   0.01092   0.00617  -0.01173  -0.00575
           A3          -0.02046   0.01156   0.01262   0.00115  -0.00081
           A4           0.06404  -0.00575  -0.01173   0.00617   0.01092
           A5           0.05996   0.00522   0.00329   0.00921   0.01030
           A6          -0.02046  -0.00081   0.00115   0.01262   0.01156
           D1           0.00210  -0.01169  -0.01357   0.01015   0.01212
           D2          -0.03106  -0.01077  -0.01137  -0.01137  -0.01077
           D3           0.03526   0.01120   0.00795   0.00795   0.01120
           D4           0.00210   0.01212   0.01015  -0.01357  -0.01169
                          A1        A2        A3        A4        A5
           A1           0.24934
           A2          -0.03892   0.25991
           A3          -0.07117  -0.06851   0.08527
           A4           0.00163  -0.01105   0.00357   0.25991
           A5           0.02843   0.00163  -0.01121  -0.03892   0.24934
           A6          -0.01121   0.00357   0.00259  -0.06851  -0.07117
           D1          -0.00984  -0.00844  -0.01744   0.00724   0.01005
           D2          -0.01137  -0.00850  -0.01657  -0.00850  -0.01137
           D3           0.01158   0.00730   0.01615   0.00730   0.01158
           D4           0.01005   0.00724   0.01701  -0.00844  -0.00984
                          A6        D1        D2        D3        D4
           A6           0.08527
           D1           0.01701   0.02862
           D2          -0.01657   0.00121   0.02930
           D3           0.01615   0.00031  -0.02687   0.02749
           D4          -0.01744  -0.02709   0.00121   0.00031   0.02862
 ITU=  0
     Eigenvalues ---    0.00290   0.07609   0.08386   0.22756   0.24096
     Eigenvalues ---    0.30033   0.30447   0.54311   0.54326   0.57315
     Eigenvalues ---    0.57418   0.58543
 RFO step:  Lambda=-9.83808520D-08 EMin= 2.90093194D-03
 Linear search not attempted -- first point.
 Iteration  1 RMS(Cart)=  0.00092172 RMS(Int)=  0.00000057
 Iteration  2 RMS(Cart)=  0.00000060 RMS(Int)=  0.00000003
 ITry= 1 IFail=0 DXMaxC= 1.82D-03 DCOld= 1.00D+10 DXMaxT= 3.00D-01 DXLimC= 3.00D+00 Rises=F
 Variable       Old X    -DE/DX   Delta X   Delta X   Delta X     New X
                                 (Linear)    (Quad)   (Total)
    R1        2.75635  -0.00002   0.00000  -0.00022  -0.00022   2.75613
    R2        1.95880   0.00002   0.00000   0.00000   0.00000   1.95880
    R3        1.96425   0.00001   0.00000   0.00003   0.00003   1.96428
    R4        1.96425   0.00001   0.00000   0.00003   0.00003   1.96428
    R5        1.95880   0.00002   0.00000   0.00000   0.00000   1.95880
    A1        1.83944   0.00001   0.00000   0.00014   0.00014   1.83958
    A2        1.90163   0.00005   0.00000   0.00032   0.00032   1.90195
    A3        1.82559   0.00000   0.00000   0.00015   0.00015   1.82573
    A4        1.90163   0.00005   0.00000   0.00032   0.00032   1.90195
    A5        1.83944   0.00001   0.00000   0.00014   0.00014   1.83958
    A6        1.82559   0.00000   0.00000   0.00015   0.00015   1.82573
    D1       -1.59685   0.00000   0.00000   0.00206   0.00206  -1.59479
    D2        2.73549  -0.00002   0.00000   0.00169   0.00169   2.73718
    D3        0.35398   0.00003   0.00000   0.00243   0.00243   0.35642
    D4       -1.59686   0.00000   0.00000   0.00206   0.00206  -1.59479
         Item               Value     Threshold  Converged?
 Maximum Force            0.000051     0.000450     YES
 RMS     Force            0.000023     0.000300     YES
 Maximum Displacement     0.001818     0.001800     NO 
 RMS     Displacement     0.000922     0.001200     YES
 Predicted change in Energy=-4.919043D-08
 Lowest energy point so far.  Saving SCF results.
 GradGradGradGradGradGradGradGradGradGradGradGradGradGradGradGradGradGrad

 Leave Link  103 at Sat Feb 16 14:27:57 2019, MaxMem=   196608000 cpu:         8.3
 (Enter /cm/shared/c3ddb/gaussian/09.d01/g09/l202.exe)
                          Input orientation:                          
 ---------------------------------------------------------------------
 Center     Atomic      Atomic             Coordinates (Angstroms)
 Number     Number       Type             X           Y           Z
 ---------------------------------------------------------------------
      1          7           0       -0.646288    0.011333   -0.338357
      2          7           0        0.630486    0.019995    0.366582
      3          1           0       -1.147642   -0.826166    0.010474
      4          1           0       -1.218637    0.814823   -0.010816
      5          1           0        0.532392    0.580305    1.236578
      6          1           0        1.270928    0.574563   -0.230688
 ---------------------------------------------------------------------
                    Distance matrix (angstroms):
                    1          2          3          4          5
     1  N    0.000000
     2  N    1.458480   0.000000
     3  H    1.036553   2.001135   0.000000
     4  H    1.039453   2.047787   1.642661   0.000000
     5  H    2.047787   1.039453   2.510777   2.162658   0.000000
     6  H    2.001135   1.036553   2.805296   2.510777   1.642661
                    6
     6  H    0.000000
 Stoichiometry    H4N2
 Framework group  C2[X(H4N2)]
 Deg. of freedom     7
 Full point group                 C2      NOp   2
 Omega: Change in point group or standard orientation.

 Old FWG=C01  [X(H4N2)]
 New FWG=C02  [X(H4N2)]
 RotChk:  IX=1 Diff= 2.38D+00
 Largest Abelian subgroup         C2      NOp   2
 Largest concise Abelian subgroup C2      NOp   2
                         Standard orientation:                         
 ---------------------------------------------------------------------
 Center     Atomic      Atomic             Coordinates (Angstroms)
 Number     Number       Type             X           Y           Z
 ---------------------------------------------------------------------
      1          7           0        0.000000   -0.729240    0.085190
      2          7           0        0.000000    0.729240    0.085190
      3          1           0       -0.978976   -1.004504    0.285887
      4          1           0        0.174250   -1.067197   -0.882221
      5          1           0       -0.174250    1.067197   -0.882221
      6          1           0        0.978976    1.004504    0.285887
 ---------------------------------------------------------------------
 Rotational constants (GHZ):    135.2227581     23.8207670     23.7661810
 Leave Link  202 at Sat Feb 16 14:27:57 2019, MaxMem=   196608000 cpu:         0.3
 (Enter /cm/shared/c3ddb/gaussian/09.d01/g09/l301.exe)
 Standard basis: STO-3G (5D, 7F)
 Ernie: Thresh=  0.10000D-02 Tol=  0.10000D-05 Strict=F.
 There are     7 symmetry adapted cartesian basis functions of A   symmetry.
 There are     7 symmetry adapted cartesian basis functions of B   symmetry.
 There are     7 symmetry adapted basis functions of A   symmetry.
 There are     7 symmetry adapted basis functions of B   symmetry.
    14 basis functions,    42 primitive gaussians,    14 cartesian basis functions
     9 alpha electrons        9 beta electrons
       nuclear repulsion energy        40.8721576589 Hartrees.
 IExCor=    0 DFT=F Ex=HF Corr=None ExCW=0 ScaHFX=  1.000000
 ScaDFX=  1.000000  1.000000  1.000000  1.000000 ScalE2=  1.000000  1.000000
 IRadAn=      4 IRanWt=     -1 IRanGd=            0 ICorTp=0 IEmpDi=  4
 NAtoms=    6 NActive=    6 NUniq=    3 SFac= 4.00D+00 NAtFMM=   60 NAOKFM=F Big=F
 Integral buffers will be    131072 words long.
 Raffenetti 1 integral format.
 Two-electron integral symmetry is turned on.
 Leave Link  301 at Sat Feb 16 14:27:57 2019, MaxMem=   196608000 cpu:         0.4
 (Enter /cm/shared/c3ddb/gaussian/09.d01/g09/l302.exe)
 NPDir=0 NMtPBC=     1 NCelOv=     1 NCel=       1 NClECP=     1 NCelD=      1
         NCelK=      1 NCelE2=     1 NClLst=     1 CellRange=     0.0.
 One-electron integrals computed using PRISM.
 One-electron integral symmetry used in STVInt
 NBasis=    14 RedAO= T EigKep=  1.94D-01  NBF=     7     7
 NBsUse=    14 1.00D-06 EigRej= -1.00D+00 NBFU=     7     7
 Leave Link  302 at Sat Feb 16 14:27:57 2019, MaxMem=   196608000 cpu:         2.3
 (Enter /cm/shared/c3ddb/gaussian/09.d01/g09/l303.exe)
 DipDrv:  MaxL=1.
 Leave Link  303 at Sat Feb 16 14:27:58 2019, MaxMem=   196608000 cpu:         0.6
 (Enter /cm/shared/c3ddb/gaussian/09.d01/g09/l401.exe)
 Initial guess from the checkpoint file:  "check.chk"
 B after Tr=     0.000000    0.000000    0.000000
         Rot=    0.537878    0.537875    0.459008   -0.459010 Ang= 114.92 deg.
 Guess basis will be translated and rotated to current coordinates.
 JPrj=2 DoOrth=T DoCkMO=T.
 Initial guess orbital symmetries:
       Occupied  (B) (A) (A) (B) (A) (B) (A) (B) (A)
       Virtual   (A) (A) (B) (B) (B)
 The electronic state of the initial guess is 1-A.
 Leave Link  401 at Sat Feb 16 14:27:58 2019, MaxMem=   196608000 cpu:         4.2
 (Enter /cm/shared/c3ddb/gaussian/09.d01/g09/l502.exe)
 Closed shell SCF:
 Using DIIS extrapolation, IDIIS=  1040.
 Integral symmetry usage will be decided dynamically.
 Keep R1 ints in memory in symmetry-blocked form, NReq=819339.
 IVT=        7619 IEndB=        7619 NGot=   196608000 MDV=   196597253
 LenX=   196597253 LenY=   196596371
 Requested convergence on RMS density matrix=1.00D-08 within  64 cycles.
 Requested convergence on MAX density matrix=1.00D-06.
 Requested convergence on             energy=1.00D-06.
 No special actions if energy rises.
 FoFCou: FMM=F IPFlag=           0 FMFlag=           0 FMFlg1=           0
         NFxFlg=           0 DoJE=F BraDBF=F KetDBF=F FulRan=T
         wScrn=  0.000000 ICntrl=     600 IOpCl=  0 I1Cent=           0 NGrid=           0
         NMat0=    1 NMatS0=    105 NMatT0=    0 NMatD0=    1 NMtDS0=    0 NMtDT0=    0
 Petite list used in FoFCou.

 Cycle   1  Pass 1  IDiag  1:
 E= -109.748056482639    
 DIIS: error= 9.39D-05 at cycle   1 NSaved=   1.
 NSaved= 1 IEnMin= 1 EnMin= -109.748056482639     IErMin= 1 ErrMin= 9.39D-05
 ErrMax= 9.39D-05  0.00D+00 EMaxC= 1.00D-01 BMatC= 1.77D-07 BMatP= 1.77D-07
 IDIUse=1 WtCom= 1.00D+00 WtEn= 0.00D+00
 Coeff-Com:  0.100D+01
 Coeff:      0.100D+01
 Gap=     0.924 Goal=   None    Shift=    0.000
 RMSDP=6.19D-05 MaxDP=2.34D-04              OVMax= 0.00D+00

 Cycle   2  Pass 1  IDiag  1:
 E= -109.748056936607     Delta-E=       -0.000000453968 Rises=F Damp=F
 DIIS: error= 4.03D-05 at cycle   2 NSaved=   2.
 NSaved= 2 IEnMin= 2 EnMin= -109.748056936607     IErMin= 2 ErrMin= 4.03D-05
 ErrMax= 4.03D-05  0.00D+00 EMaxC= 1.00D-01 BMatC= 2.79D-08 BMatP= 1.77D-07
 IDIUse=1 WtCom= 1.00D+00 WtEn= 0.00D+00
 Coeff-Com: -0.630D+00 0.163D+01
 Coeff:     -0.630D+00 0.163D+01
 Gap=     0.919 Goal=   None    Shift=    0.000
 RMSDP=4.16D-05 MaxDP=1.50D-04 DE=-4.54D-07 OVMax= 0.00D+00

 Cycle   3  Pass 1  IDiag  1:
 E= -109.748057025557     Delta-E=       -0.000000088950 Rises=F Damp=F
 DIIS: error= 2.90D-06 at cycle   3 NSaved=   3.
 NSaved= 3 IEnMin= 3 EnMin= -109.748057025557     IErMin= 3 ErrMin= 2.90D-06
 ErrMax= 2.90D-06  0.00D+00 EMaxC= 1.00D-01 BMatC= 1.92D-10 BMatP= 2.79D-08
 IDIUse=1 WtCom= 1.00D+00 WtEn= 0.00D+00
 Coeff-Com:  0.277D+00-0.741D+00 0.146D+01
 Coeff:      0.277D+00-0.741D+00 0.146D+01
 Gap=     0.919 Goal=   None    Shift=    0.000
 RMSDP=3.17D-06 MaxDP=9.31D-06 DE=-8.90D-08 OVMax= 0.00D+00

 Cycle   4  Pass 1  IDiag  1:
 E= -109.748057026116     Delta-E=       -0.000000000559 Rises=F Damp=F
 DIIS: error= 3.05D-07 at cycle   4 NSaved=   4.
 NSaved= 4 IEnMin= 4 EnMin= -109.748057026116     IErMin= 4 ErrMin= 3.05D-07
 ErrMax= 3.05D-07  0.00D+00 EMaxC= 1.00D-01 BMatC= 1.41D-12 BMatP= 1.92D-10
 IDIUse=1 WtCom= 1.00D+00 WtEn= 0.00D+00
 Coeff-Com: -0.418D-01 0.112D+00-0.267D+00 0.120D+01
 Coeff:     -0.418D-01 0.112D+00-0.267D+00 0.120D+01
 Gap=     0.919 Goal=   None    Shift=    0.000
 RMSDP=2.00D-07 MaxDP=5.51D-07 DE=-5.59D-10 OVMax= 0.00D+00

 Cycle   5  Pass 1  IDiag  1:
 E= -109.748057026120     Delta-E=       -0.000000000003 Rises=F Damp=F
 DIIS: error= 4.37D-08 at cycle   5 NSaved=   5.
 NSaved= 5 IEnMin= 5 EnMin= -109.748057026120     IErMin= 5 ErrMin= 4.37D-08
 ErrMax= 4.37D-08  0.00D+00 EMaxC= 1.00D-01 BMatC= 3.05D-14 BMatP= 1.41D-12
 IDIUse=1 WtCom= 1.00D+00 WtEn= 0.00D+00
 Coeff-Com: -0.268D-02 0.714D-02-0.906D-02-0.126D+00 0.113D+01
 Coeff:     -0.268D-02 0.714D-02-0.906D-02-0.126D+00 0.113D+01
 Gap=     0.919 Goal=   None    Shift=    0.000
 RMSDP=2.74D-08 MaxDP=7.72D-08 DE=-3.47D-12 OVMax= 0.00D+00

 Cycle   6  Pass 1  IDiag  1:
 E= -109.748057026120     Delta-E=        0.000000000000 Rises=F Damp=F
 DIIS: error= 6.30D-09 at cycle   6 NSaved=   6.
 NSaved= 6 IEnMin= 6 EnMin= -109.748057026120     IErMin= 6 ErrMin= 6.30D-09
 ErrMax= 6.30D-09  0.00D+00 EMaxC= 1.00D-01 BMatC= 8.82D-16 BMatP= 3.05D-14
 IDIUse=1 WtCom= 1.00D+00 WtEn= 0.00D+00
 Coeff-Com:  0.139D-02-0.374D-02 0.797D-02-0.155D-01-0.128D+00 0.114D+01
 Coeff:      0.139D-02-0.374D-02 0.797D-02-0.155D-01-0.128D+00 0.114D+01
 Gap=     0.919 Goal=   None    Shift=    0.000
 RMSDP=5.01D-09 MaxDP=1.68D-08 DE=-2.84D-14 OVMax= 0.00D+00

 SCF Done:  E(RHF) =  -109.748057026     A.U. after    6 cycles
            NFock=  6  Conv=0.50D-08     -V/T= 2.0093
 KE= 1.087321908182D+02 PE=-3.394126394087D+02 EE= 8.006023390553D+01
 Leave Link  502 at Sat Feb 16 14:28:00 2019, MaxMem=   196608000 cpu:         8.8
 (Enter /cm/shared/c3ddb/gaussian/09.d01/g09/l508.exe)
 QCSCF skips out because SCF is already converged.
 Leave Link  508 at Sat Feb 16 14:28:00 2019, MaxMem=   196608000 cpu:         0.0
 (Enter /cm/shared/c3ddb/gaussian/09.d01/g09/l701.exe)
 Compute integral first derivatives.
 ... and contract with generalized density number  0.
 Leave Link  701 at Sat Feb 16 14:28:00 2019, MaxMem=   196608000 cpu:         2.7
 (Enter /cm/shared/c3ddb/gaussian/09.d01/g09/l702.exe)
 L702 exits ... SP integral derivatives will be done elsewhere.
 Leave Link  702 at Sat Feb 16 14:28:00 2019, MaxMem=   196608000 cpu:         0.2
 (Enter /cm/shared/c3ddb/gaussian/09.d01/g09/l703.exe)
 Compute integral first derivatives, UseDBF=F ICtDFT=           0.
 Integral derivatives from FoFJK, PRISM(SPDF).
 Calling FoFJK, ICntrl=      2127 FMM=F ISym2X=1 I1Cent= 0 IOpClX= 0 NMat=1 NMatS=1 NMatT=0.
 FoFJK:  IHMeth= 1 ICntrl=    2127 DoSepK=F KAlg= 0 I1Cent=   0 FoldK=F
 IRaf=         0 NMat=   1 IRICut=       1 DoRegI=T DoRafI=F ISym2E= 1.
 FoFCou: FMM=F IPFlag=           0 FMFlag=      100000 FMFlg1=         800
         NFxFlg=           0 DoJE=F BraDBF=F KetDBF=F FulRan=T
         wScrn=  0.000000 ICntrl=    2127 IOpCl=  0 I1Cent=           0 NGrid=           0
         NMat0=    1 NMatS0=      1 NMatT0=    0 NMatD0=    1 NMtDS0=    0 NMtDT0=    0
 Petite list used in FoFCou.
 Leave Link  703 at Sat Feb 16 14:28:01 2019, MaxMem=   196608000 cpu:         1.5
 (Enter /cm/shared/c3ddb/gaussian/09.d01/g09/l716.exe)
 Dipole        = 1.33226763D-15 1.33226763D-15-8.74920483D-01
 ***** Axes restored to original set *****
 -------------------------------------------------------------------
 Center     Atomic                   Forces (Hartrees/Bohr)
 Number     Number              X              Y              Z
 -------------------------------------------------------------------
      1        7          -0.000000073    0.000000032   -0.000000057
      2        7           0.000000064   -0.000000015    0.000000072
      3        1           0.000000005   -0.000000013   -0.000000030
      4        1          -0.000000005   -0.000000023    0.000000051
      5        1          -0.000000007    0.000000047   -0.000000030
      6        1           0.000000015   -0.000000028   -0.000000007
 -------------------------------------------------------------------
 Cartesian Forces:  Max     0.000000073 RMS     0.000000039
 Leave Link  716 at Sat Feb 16 14:28:01 2019, MaxMem=   196608000 cpu:         0.2
 (Enter /cm/shared/c3ddb/gaussian/09.d01/g09/l103.exe)

 GradGradGradGradGradGradGradGradGradGradGradGradGradGradGradGradGradGrad
 Berny optimization.
 Using GEDIIS/GDIIS optimizer.
 FormGI is forming the generalized inverse of G from B-inverse, IUseBI=4.
 Internal  Forces:  Max     0.000000082 RMS     0.000000035
 Search for a local minimum.
 Step number   2 out of a maximum of   25
 All quantities printed in internal units (Hartrees-Bohrs-Radians)
 RMS Force = .34552D-07 SwitMx=.10000D-02 MixMth= 2
 Mixed Optimization -- En-DIIS/RFO-DIIS
 Swapping is turned off.
 Update second derivatives using D2CorX and points    1    2
 DE= -4.91D-08 DEPred=-4.92D-08 R= 9.97D-01
 Trust test= 9.97D-01 RLast= 4.20D-03 DXMaxT set to 3.00D-01
 The second derivative matrix:
                          R1        R2        R3        R4        R5
           R1           0.52588
           R2          -0.00473   0.56264
           R3          -0.00658  -0.01635   0.55053
           R4          -0.00658  -0.00019   0.00180   0.55053
           R5          -0.00473  -0.00096  -0.00019  -0.01635   0.56264
           A1           0.05997   0.01029   0.00920   0.00328   0.00521
           A2           0.06403   0.01090   0.00615  -0.01175  -0.00578
           A3          -0.02046   0.01156   0.01263   0.00115  -0.00081
           A4           0.06403  -0.00577  -0.01175   0.00615   0.01090
           A5           0.05997   0.00521   0.00328   0.00920   0.01029
           A6          -0.02046  -0.00081   0.00115   0.01263   0.01156
           D1           0.00209  -0.01168  -0.01356   0.01015   0.01212
           D2          -0.03107  -0.01075  -0.01136  -0.01136  -0.01075
           D3           0.03525   0.01119   0.00794   0.00794   0.01119
           D4           0.00209   0.01212   0.01015  -0.01356  -0.01168
                          A1        A2        A3        A4        A5
           A1           0.24933
           A2          -0.03895   0.25985
           A3          -0.07117  -0.06850   0.08526
           A4           0.00160  -0.01111   0.00358   0.25985
           A5           0.02842   0.00160  -0.01121  -0.03895   0.24933
           A6          -0.01121   0.00358   0.00259  -0.06850  -0.07117
           D1          -0.00984  -0.00842  -0.01744   0.00725   0.01005
           D2          -0.01136  -0.00846  -0.01658  -0.00846  -0.01136
           D3           0.01157   0.00729   0.01615   0.00729   0.01157
           D4           0.01005   0.00725   0.01701  -0.00842  -0.00984
                          A6        D1        D2        D3        D4
           A6           0.08527
           D1           0.01701   0.02862
           D2          -0.01658   0.00121   0.02928
           D3           0.01615   0.00032  -0.02685   0.02749
           D4          -0.01744  -0.02709   0.00121   0.00032   0.02862
 ITU=  0  0
     Eigenvalues ---    0.00291   0.07605   0.08386   0.22747   0.24096
     Eigenvalues ---    0.30033   0.30447   0.54306   0.54326   0.57315
     Eigenvalues ---    0.57418   0.58542
 En-DIIS/RFO-DIIS IScMMF=        0 using points:     2    1
 RFO step:  Lambda= 0.00000000D+00.
 NNeg= 0 NP= 2 Switch=  2.50D-03 Rises=F DC=  4.91D-08 SmlDif=  1.00D-05
 RMS Error=  0.3780482322D-06 NUsed= 2 EDIIS=F
 DidBck=F Rises=F RFO-DIIS coefs:    0.99630    0.00370
 Iteration  1 RMS(Cart)=  0.00000581 RMS(Int)=  0.00000000
 Iteration  2 RMS(Cart)=  0.00000000 RMS(Int)=  0.00000000
 ITry= 1 IFail=0 DXMaxC= 1.07D-05 DCOld= 1.00D+10 DXMaxT= 3.00D-01 DXLimC= 3.00D+00 Rises=F
 ClnCor:  largest displacement from symmetrization is 9.98D-12 for atom     6.
 Variable       Old X    -DE/DX   Delta X   Delta X   Delta X     New X
                                 (Linear)    (Quad)   (Total)
    R1        2.75613   0.00000   0.00000   0.00000   0.00000   2.75613
    R2        1.95880   0.00000   0.00000   0.00000   0.00000   1.95880
    R3        1.96428   0.00000   0.00000   0.00000   0.00000   1.96428
    R4        1.96428   0.00000   0.00000   0.00000   0.00000   1.96428
    R5        1.95880   0.00000   0.00000   0.00000   0.00000   1.95880
    A1        1.83958   0.00000   0.00000   0.00000   0.00000   1.83958
    A2        1.90195   0.00000   0.00000   0.00000   0.00000   1.90194
    A3        1.82573   0.00000   0.00000   0.00000   0.00000   1.82573
    A4        1.90195   0.00000   0.00000   0.00000   0.00000   1.90194
    A5        1.83958   0.00000   0.00000   0.00000   0.00000   1.83958
    A6        1.82573   0.00000   0.00000   0.00000   0.00000   1.82573
    D1       -1.59479   0.00000  -0.00001  -0.00001  -0.00001  -1.59481
    D2        2.73718   0.00000  -0.00001  -0.00001  -0.00001   2.73717
    D3        0.35642   0.00000  -0.00001  -0.00001  -0.00001   0.35640
    D4       -1.59479   0.00000  -0.00001  -0.00001  -0.00001  -1.59481
         Item               Value     Threshold  Converged?
 Maximum Force            0.000000     0.000450     YES
 RMS     Force            0.000000     0.000300     YES
 Maximum Displacement     0.000011     0.001800     YES
 RMS     Displacement     0.000006     0.001200     YES
 Predicted change in Energy=-1.071903D-12
 Optimization completed.
    -- Stationary point found.
                           ----------------------------
                           !   Optimized Parameters   !
                           ! (Angstroms and Degrees)  !
 --------------------------                            --------------------------
 ! Name  Definition              Value          Derivative Info.                !
 --------------------------------------------------------------------------------
 ! R1    R(1,2)                  1.4585         -DE/DX =    0.0                 !
 ! R2    R(1,3)                  1.0366         -DE/DX =    0.0                 !
 ! R3    R(1,4)                  1.0395         -DE/DX =    0.0                 !
 ! R4    R(2,5)                  1.0395         -DE/DX =    0.0                 !
 ! R5    R(2,6)                  1.0366         -DE/DX =    0.0                 !
 ! A1    A(2,1,3)              105.4            -DE/DX =    0.0                 !
 ! A2    A(2,1,4)              108.9734         -DE/DX =    0.0                 !
 ! A3    A(3,1,4)              104.6068         -DE/DX =    0.0                 !
 ! A4    A(1,2,5)              108.9734         -DE/DX =    0.0                 !
 ! A5    A(1,2,6)              105.4            -DE/DX =    0.0                 !
 ! A6    A(5,2,6)              104.6068         -DE/DX =    0.0                 !
 ! D1    D(3,1,2,5)            -91.3749         -DE/DX =    0.0                 !
 ! D2    D(3,1,2,6)            156.829          -DE/DX =    0.0                 !
 ! D3    D(4,1,2,5)             20.4213         -DE/DX =    0.0                 !
 ! D4    D(4,1,2,6)            -91.3749         -DE/DX =    0.0                 !
 --------------------------------------------------------------------------------
 Lowest energy point so far.  Saving SCF results.
 GradGradGradGradGradGradGradGradGradGradGradGradGradGradGradGradGradGrad

 Largest change from initial coordinates is atom    4       1.701 Angstoms.
 Leave Link  103 at Sat Feb 16 14:28:03 2019, MaxMem=   196608000 cpu:        14.8
 (Enter /cm/shared/c3ddb/gaussian/09.d01/g09/l202.exe)
                          Input orientation:                          
 ---------------------------------------------------------------------
 Center     Atomic      Atomic             Coordinates (Angstroms)
 Number     Number       Type             X           Y           Z
 ---------------------------------------------------------------------
      1          7           0       -0.646288    0.011333   -0.338357
      2          7           0        0.630486    0.019995    0.366582
      3          1           0       -1.147642   -0.826166    0.010474
      4          1           0       -1.218637    0.814823   -0.010816
      5          1           0        0.532392    0.580305    1.236578
      6          1           0        1.270928    0.574563   -0.230688
 ---------------------------------------------------------------------
                    Distance matrix (angstroms):
                    1          2          3          4          5
     1  N    0.000000
     2  N    1.458480   0.000000
     3  H    1.036553   2.001135   0.000000
     4  H    1.039453   2.047787   1.642661   0.000000
     5  H    2.047787   1.039453   2.510777   2.162658   0.000000
     6  H    2.001135   1.036553   2.805296   2.510777   1.642661
                    6
     6  H    0.000000
 Stoichiometry    H4N2
 Framework group  C2[X(H4N2)]
 Deg. of freedom     7
 Full point group                 C2      NOp   2
 RotChk:  IX=1 Diff= 1.61D-14
 Largest Abelian subgroup         C2      NOp   2
 Largest concise Abelian subgroup C2      NOp   2
                         Standard orientation:                         
 ---------------------------------------------------------------------
 Center     Atomic      Atomic             Coordinates (Angstroms)
 Number     Number       Type             X           Y           Z
 ---------------------------------------------------------------------
      1          7           0        0.000000   -0.729240    0.085190
      2          7           0        0.000000    0.729240    0.085190
      3          1           0       -0.978976   -1.004504    0.285887
      4          1           0        0.174250   -1.067197   -0.882221
      5          1           0       -0.174250    1.067197   -0.882221
      6          1           0        0.978976    1.004504    0.285887
 ---------------------------------------------------------------------
 Rotational constants (GHZ):    135.2227581     23.8207670     23.7661810
 Leave Link  202 at Sat Feb 16 14:28:03 2019, MaxMem=   196608000 cpu:         0.4
 (Enter /cm/shared/c3ddb/gaussian/09.d01/g09/l601.exe)
 Copying SCF densities to generalized density rwf, IOpCl= 0 IROHF=0.

 **********************************************************************

            Population analysis using the SCF density.

 **********************************************************************

 Orbital symmetries:
       Occupied  (B) (A) (A) (B) (A) (B) (A) (B) (A)
       Virtual   (B) (A) (B) (A) (B)
 The electronic state is 1-A.
 Alpha  occ. eigenvalues --  -15.34992 -15.34923  -1.19638  -0.95490  -0.60837
 Alpha  occ. eigenvalues --   -0.59722  -0.52835  -0.35561  -0.34000
 Alpha virt. eigenvalues --    0.57914   0.58610   0.65332   0.68981   0.73307
          Condensed to atoms (all electrons):
               1          2          3          4          5          6
     1  N    6.429364   0.275353   0.330572   0.325507  -0.024949  -0.032541
     2  N    0.275353   6.429364  -0.032541  -0.024949   0.325507   0.330572
     3  H    0.330572  -0.032541   0.575606  -0.039246   0.000937   0.003237
     4  H    0.325507  -0.024949  -0.039246   0.603251  -0.007372   0.000937
     5  H   -0.024949   0.325507   0.000937  -0.007372   0.603251  -0.039246
     6  H   -0.032541   0.330572   0.003237   0.000937  -0.039246   0.575606
 Mulliken charges:
               1
     1  N   -0.303306
     2  N   -0.303306
     3  H    0.161435
     4  H    0.141871
     5  H    0.141871
     6  H    0.161435
 Sum of Mulliken charges =   0.00000
 Mulliken charges with hydrogens summed into heavy atoms:
               1
     1  N    0.000000
     2  N    0.000000
 Electronic spatial extent (au):  <R**2>=             81.9404
 Charge=              0.0000 electrons
 Dipole moment (field-independent basis, Debye):
    X=              0.0000    Y=              0.0000    Z=             -2.2238  Tot=              2.2238
 Quadrupole moment (field-independent basis, Debye-Ang):
   XX=            -11.2494   YY=            -12.5059   ZZ=            -11.8147
   XY=              2.4748   XZ=              0.0000   YZ=              0.0000
 Traceless Quadrupole moment (field-independent basis, Debye-Ang):
   XX=              0.6073   YY=             -0.6493   ZZ=              0.0420
   XY=              2.4748   XZ=              0.0000   YZ=              0.0000
 Octapole moment (field-independent basis, Debye-Ang**2):
  XXX=              0.0000  YYY=              0.0000  ZZZ=             -1.9078  XYY=              0.0000
  XXY=              0.0000  XXZ=              0.2922  XZZ=              0.0000  YZZ=              0.0000
  YYZ=             -2.5784  XYZ=              1.1729
 Hexadecapole moment (field-independent basis, Debye-Ang**3):
 XXXX=            -14.1882 YYYY=            -56.8938 ZZZZ=            -14.6609 XXXY=             -0.7306
 XXXZ=              0.0000 YYYX=             -0.4072 YYYZ=              0.0000 ZZZX=              0.0000
 ZZZY=              0.0000 XXYY=            -10.9509 XXZZ=             -5.2556 YYZZ=            -11.3019
 XXYZ=              0.0000 YYXZ=              0.0000 ZZXY=             -0.9915
 N-N= 4.087215765889D+01 E-N=-3.394126393562D+02  KE= 1.087321908182D+02
 Symmetry A    KE= 5.577744148721D+01
 Symmetry B    KE= 5.295474933097D+01
 No NMR shielding tensors so no spin-rotation constants.
 Leave Link  601 at Sat Feb 16 14:28:04 2019, MaxMem=   196608000 cpu:         4.0
 (Enter /cm/shared/c3ddb/gaussian/09.d01/g09/l9999.exe)
 1\1\GINC-NODE004\FOpt\RHF\STO-3G\H4N2\DUMINDA\16-Feb-2019\0\\#P opt=ca
 lcfc / scf=(tight, direct) int=finegrid scf=xqc\\name\\0,1\N,-0.646288
 2736,0.0113325909,-0.3383567628\N,0.6304856197,0.0199952029,0.36658169
 99\H,-1.147642373,-0.8261657621,0.0104742083\H,-1.2186367947,0.8148226
 757,-0.010816225\H,0.532391559,0.5803045629,1.2365776345\H,1.270928259
 4,0.574562729,-0.2306875484\\Version=AS64L-G09RevD.01\State=1-A\HF=-10
 9.748057\RMSD=5.008e-09\RMSF=3.911e-08\Dipole=-0.3031721,0.6167059,0.5
 415223\Quadrupole=0.7707775,0.2581511,-1.0289286,1.2439755,-1.0026452,
 0.4380072\PG=C02 [X(H4N2)]\\@


 THERE ARE PEOPLE SO ADDICTED TO EXAGERATING THEY
 CAN'T TELL THE TRUTH WITHOUT LYING. -- FORTUNE COOKIE
 Job cpu time:       0 days  0 hours  1 minutes 50.1 seconds.
 File lengths (MBytes):  RWF=      5 Int=      0 D2E=      0 Chk=      1 Scr=      1
 Normal termination of Gaussian 09 at Sat Feb 16 14:28:04 2019.
