 Entering Gaussian System, Link 0=g09
 Initial command:
 /cm/shared/c3ddb/gaussian/09.d01/g09/l1.exe "/scratch/users/duminda/g09/a1690-7322580/Gau-40111.inp" -scrdir="/scratch/users/duminda/g09/a1690-7322580/"
 Entering Link 1 = /cm/shared/c3ddb/gaussian/09.d01/g09/l1.exe PID=     40112.
  
 Copyright (c) 1988,1990,1992,1993,1995,1998,2003,2009,2013,
            Gaussian, Inc.  All Rights Reserved.
  
 This is part of the Gaussian(R) 09 program.  It is based on
 the Gaussian(R) 03 system (copyright 2003, Gaussian, Inc.),
 the Gaussian(R) 98 system (copyright 1998, Gaussian, Inc.),
 the Gaussian(R) 94 system (copyright 1995, Gaussian, Inc.),
 the Gaussian 92(TM) system (copyright 1992, Gaussian, Inc.),
 the Gaussian 90(TM) system (copyright 1990, Gaussian, Inc.),
 the Gaussian 88(TM) system (copyright 1988, Gaussian, Inc.),
 the Gaussian 86(TM) system (copyright 1986, Carnegie Mellon
 University), and the Gaussian 82(TM) system (copyright 1983,
 Carnegie Mellon University). Gaussian is a federally registered
 trademark of Gaussian, Inc.
  
 This software contains proprietary and confidential information,
 including trade secrets, belonging to Gaussian, Inc.
  
 This software is provided under written license and may be
 used, copied, transmitted, or stored only in accord with that
 written license.
  
 The following legend is applicable only to US Government
 contracts under FAR:
  
                    RESTRICTED RIGHTS LEGEND
  
 Use, reproduction and disclosure by the US Government is
 subject to restrictions as set forth in subparagraphs (a)
 and (c) of the Commercial Computer Software - Restricted
 Rights clause in FAR 52.227-19.
  
 Gaussian, Inc.
 340 Quinnipiac St., Bldg. 40, Wallingford CT 06492
  
  
 ---------------------------------------------------------------
 Warning -- This program may not be used in any manner that
 competes with the business of Gaussian, Inc. or will provide
 assistance to any competitor of Gaussian, Inc.  The licensee
 of this program is prohibited from giving any competitor of
 Gaussian, Inc. access to this program.  By using this program,
 the user acknowledges that Gaussian, Inc. is engaged in the
 business of creating and licensing software in the field of
 computational chemistry and represents and warrants to the
 licensee that it is not a competitor of Gaussian, Inc. and that
 it will not use this program in any manner prohibited above.
 ---------------------------------------------------------------
  

 Cite this work as:
 Gaussian 09, Revision D.01,
 M. J. Frisch, G. W. Trucks, H. B. Schlegel, G. E. Scuseria, 
 M. A. Robb, J. R. Cheeseman, G. Scalmani, V. Barone, B. Mennucci, 
 G. A. Petersson, H. Nakatsuji, M. Caricato, X. Li, H. P. Hratchian, 
 A. F. Izmaylov, J. Bloino, G. Zheng, J. L. Sonnenberg, M. Hada, 
 M. Ehara, K. Toyota, R. Fukuda, J. Hasegawa, M. Ishida, T. Nakajima, 
 Y. Honda, O. Kitao, H. Nakai, T. Vreven, J. A. Montgomery, Jr., 
 J. E. Peralta, F. Ogliaro, M. Bearpark, J. J. Heyd, E. Brothers, 
 K. N. Kudin, V. N. Staroverov, T. Keith, R. Kobayashi, J. Normand, 
 K. Raghavachari, A. Rendell, J. C. Burant, S. S. Iyengar, J. Tomasi, 
 M. Cossi, N. Rega, J. M. Millam, M. Klene, J. E. Knox, J. B. Cross, 
 V. Bakken, C. Adamo, J. Jaramillo, R. Gomperts, R. E. Stratmann, 
 O. Yazyev, A. J. Austin, R. Cammi, C. Pomelli, J. W. Ochterski, 
 R. L. Martin, K. Morokuma, V. G. Zakrzewski, G. A. Voth, 
 P. Salvador, J. J. Dannenberg, S. Dapprich, A. D. Daniels, 
 O. Farkas, J. B. Foresman, J. V. Ortiz, J. Cioslowski, 
 and D. J. Fox, Gaussian, Inc., Wallingford CT, 2013.
 
 ******************************************
 Gaussian 09:  AS64L-G09RevD.01 24-Apr-2013
                16-Feb-2019 
 ******************************************
 %chk=check.chk
 %mem=1500mb
 %nproc=8
 Will use up to    8 processors via shared memory.
 --------------------------------------------------------------
 #P opt=(modredundant, calcfc, noeigentest) b3lyp/cbsb7 scf=xqc
 --------------------------------------------------------------
 1/10=4,11=1,14=-1,18=120,19=15,26=3,38=1/1,3;
 2/9=110,12=2,17=6,18=5,40=1/2;
 3/5=4,6=6,7=700,11=2,16=1,25=1,30=1,71=2,74=-5,140=1/1,2,3;
 4//1;
 5/5=2,8=3,13=1,38=5/2,8;
 8/6=4,10=90,11=11/1;
 11/6=1,8=1,9=11,15=111,16=1/1,2,10;
 10/6=1,13=1/2;
 6/7=2,8=2,9=2,10=2,28=1/1;
 7/10=1,18=20,25=1/1,2,3,16;
 1/10=4,11=1,14=-1,18=20,19=15,26=3/3(2);
 2/9=110/2;
 99//99;
 2/9=110/2;
 3/5=4,6=6,7=700,11=2,16=1,25=1,30=1,71=1,74=-5/1,2,3;
 4/5=5,16=3,69=1/1;
 5/5=2,8=3,13=1,38=5/2,8;
 7//1,2,3,16;
 1/11=1,14=-1,18=20,19=15,26=3/3(-5);
 2/9=110/2;
 6/7=2,8=2,9=2,10=2,19=2,28=1/1;
 99/9=1/99;
 Leave Link    1 at Sat Feb 16 13:50:04 2019, MaxMem=   196608000 cpu:         1.2
 (Enter /cm/shared/c3ddb/gaussian/09.d01/g09/l101.exe)
 ----
 name
 ----
 Symbolic Z-matrix:
 Charge =  0 Multiplicity = 1
 N                     0.82427   0.20619  -0.34885 
 C                    -0.56981  -0.02279   0.04344 
 H                    -1.0848   -0.56296  -0.75539 
 H                    -0.71377  -0.58799   0.97813 
 H                    -1.07553   0.93999   0.15485 
 H                     1.30553  -0.68101  -0.45688 
 H                     1.31411   0.70857   0.3847 
 
 The following ModRedundant input section has been read:
 D       6       1       2       3 S  36 10.000                                
 
 NAtoms=      7 NQM=        7 NQMF=       0 NMMI=      0 NMMIF=      0
                NMic=       0 NMicF=      0.
                    Isotopes and Nuclear Properties:
 (Nuclear quadrupole moments (NQMom) in fm**2, nuclear magnetic moments (NMagM)
  in nuclear magnetons)

  Atom         1           2           3           4           5           6           7
 IAtWgt=          14          12           1           1           1           1           1
 AtmWgt=  14.0030740  12.0000000   1.0078250   1.0078250   1.0078250   1.0078250   1.0078250
 NucSpn=           2           0           1           1           1           1           1
 AtZEff=   0.0000000   0.0000000   0.0000000   0.0000000   0.0000000   0.0000000   0.0000000
 NQMom=    2.0440000   0.0000000   0.0000000   0.0000000   0.0000000   0.0000000   0.0000000
 NMagM=    0.4037610   0.0000000   2.7928460   2.7928460   2.7928460   2.7928460   2.7928460
 AtZNuc=   7.0000000   6.0000000   1.0000000   1.0000000   1.0000000   1.0000000   1.0000000
 Leave Link  101 at Sat Feb 16 13:50:04 2019, MaxMem=   196608000 cpu:         0.9
 (Enter /cm/shared/c3ddb/gaussian/09.d01/g09/l103.exe)

 GradGradGradGradGradGradGradGradGradGradGradGradGradGradGradGradGradGrad
 Berny optimization.
 Initialization pass.
                           ----------------------------
                           !    Initial Parameters    !
                           ! (Angstroms and Degrees)  !
 --------------------------                            --------------------------
 ! Name  Definition              Value          Derivative Info.                !
 --------------------------------------------------------------------------------
 ! R1    R(1,2)                  1.4662         calculate D2E/DX2 analytically  !
 ! R2    R(1,6)                  1.0151         calculate D2E/DX2 analytically  !
 ! R3    R(1,7)                  1.0151         calculate D2E/DX2 analytically  !
 ! R4    R(2,3)                  1.0932         calculate D2E/DX2 analytically  !
 ! R5    R(2,4)                  1.1017         calculate D2E/DX2 analytically  !
 ! R6    R(2,5)                  1.0932         calculate D2E/DX2 analytically  !
 ! A1    A(2,1,6)              110.045          calculate D2E/DX2 analytically  !
 ! A2    A(2,1,7)              110.0451         calculate D2E/DX2 analytically  !
 ! A3    A(6,1,7)              106.3003         calculate D2E/DX2 analytically  !
 ! A4    A(1,2,3)              109.2421         calculate D2E/DX2 analytically  !
 ! A5    A(1,2,4)              115.553          calculate D2E/DX2 analytically  !
 ! A6    A(1,2,5)              109.2421         calculate D2E/DX2 analytically  !
 ! A7    A(3,2,4)              107.752          calculate D2E/DX2 analytically  !
 ! A8    A(3,2,5)              106.9597         calculate D2E/DX2 analytically  !
 ! A9    A(4,2,5)              107.752          calculate D2E/DX2 analytically  !
 ! D1    D(6,1,2,3)            -63.2485         Scan                            !
 ! D2    D(6,1,2,4)             58.409          calculate D2E/DX2 analytically  !
 ! D3    D(6,1,2,5)           -179.9335         calculate D2E/DX2 analytically  !
 ! D4    D(7,1,2,3)            179.9334         calculate D2E/DX2 analytically  !
 ! D5    D(7,1,2,4)            -58.409          calculate D2E/DX2 analytically  !
 ! D6    D(7,1,2,5)             63.2485         calculate D2E/DX2 analytically  !
 --------------------------------------------------------------------------------
 Trust Radius=3.00D-01 FncErr=1.00D-07 GrdErr=1.00D-06
 Number of optimizations in scan=  37
 Number of steps in this run=     31 maximum allowed number of steps=    100.
 GradGradGradGradGradGradGradGradGradGradGradGradGradGradGradGradGradGrad

 Leave Link  103 at Sat Feb 16 13:50:04 2019, MaxMem=   196608000 cpu:         0.1
 (Enter /cm/shared/c3ddb/gaussian/09.d01/g09/l202.exe)
                          Input orientation:                          
 ---------------------------------------------------------------------
 Center     Atomic      Atomic             Coordinates (Angstroms)
 Number     Number       Type             X           Y           Z
 ---------------------------------------------------------------------
      1          7           0        0.824267    0.206191   -0.348852
      2          6           0       -0.569810   -0.022794    0.043441
      3          1           0       -1.084799   -0.562956   -0.755389
      4          1           0       -0.713770   -0.587986    0.978134
      5          1           0       -1.075527    0.939992    0.154845
      6          1           0        1.305533   -0.681013   -0.456877
      7          1           0        1.314106    0.708567    0.384697
 ---------------------------------------------------------------------
                    Distance matrix (angstroms):
                    1          2          3          4          5
     1  N    0.000000
     2  C    1.466212   0.000000
     3  H    2.097950   1.093215   0.000000
     4  H    2.181093   1.101734   1.772961   0.000000
     5  H    2.097949   1.093214   1.757118   1.772961   0.000000
     6  H    1.015095   2.049508   2.411791   2.479011   2.944708
     7  H    1.015095   2.049508   2.944709   2.479012   2.411791
                    6          7
     6  H    0.000000
     7  H    1.624578   0.000000
 Stoichiometry    CH5N
 Framework group  CS[SG(CHN),X(H4)]
 Deg. of freedom     9
 Full point group                 CS      NOp   2
 Largest Abelian subgroup         CS      NOp   2
 Largest concise Abelian subgroup CS      NOp   2
                         Standard orientation:                         
 ---------------------------------------------------------------------
 Center     Atomic      Atomic             Coordinates (Angstroms)
 Number     Number       Type             X           Y           Z
 ---------------------------------------------------------------------
      1          7           0       -0.050536   -0.760880    0.000000
      2          6           0       -0.050536    0.705333    0.000000
      3          1           0       -0.592245    1.065613    0.878559
      4          1           0        0.943434    1.180561    0.000000
      5          1           0       -0.592245    1.065613   -0.878559
      6          1           0        0.449012   -1.108812    0.812289
      7          1           0        0.449012   -1.108812   -0.812289
 ---------------------------------------------------------------------
 Rotational constants (GHZ):    103.4220288     22.6897304     21.8226817
 Leave Link  202 at Sat Feb 16 13:50:04 2019, MaxMem=   196608000 cpu:         0.3
 (Enter /cm/shared/c3ddb/gaussian/09.d01/g09/l301.exe)
 Standard basis: 6-311G(2d,d,p) (5D, 7F)
 Ernie: Thresh=  0.10000D-02 Tol=  0.10000D-05 Strict=F.
 There are    45 symmetry adapted cartesian basis functions of A'  symmetry.
 There are    23 symmetry adapted cartesian basis functions of A"  symmetry.
 There are    43 symmetry adapted basis functions of A'  symmetry.
 There are    23 symmetry adapted basis functions of A"  symmetry.
    66 basis functions,   104 primitive gaussians,    68 cartesian basis functions
     9 alpha electrons        9 beta electrons
       nuclear repulsion energy        41.9242734889 Hartrees.
 IExCor=  402 DFT=T Ex+Corr=B3LYP ExCW=0 ScaHFX=  0.200000
 ScaDFX=  0.800000  0.720000  1.000000  0.810000 ScalE2=  1.000000  1.000000
 IRadAn=      0 IRanWt=     -1 IRanGd=            0 ICorTp=0 IEmpDi=  4
 NAtoms=    7 NActive=    7 NUniq=    5 SFac= 1.96D+00 NAtFMM=   60 NAOKFM=F Big=F
 Integral buffers will be    131072 words long.
 Raffenetti 2 integral format.
 Two-electron integral symmetry is turned on.
 Leave Link  301 at Sat Feb 16 13:50:04 2019, MaxMem=   196608000 cpu:         0.9
 (Enter /cm/shared/c3ddb/gaussian/09.d01/g09/l302.exe)
 NPDir=0 NMtPBC=     1 NCelOv=     1 NCel=       1 NClECP=     1 NCelD=      1
         NCelK=      1 NCelE2=     1 NClLst=     1 CellRange=     0.0.
 One-electron integrals computed using PRISM.
 One-electron integral symmetry used in STVInt
 NBasis=    66 RedAO= T EigKep=  7.18D-03  NBF=    43    23
 NBsUse=    66 1.00D-06 EigRej= -1.00D+00 NBFU=    43    23
 Precomputing XC quadrature grid using
 IXCGrd= 4 IRadAn=           0 IRanWt=          -1 IRanGd=           0 AccXCQ= 0.00D+00.
 Generated NRdTot=       0 NPtTot=           0 NUsed=           0 NTot=          32
 NSgBfM=    68    68    68    68    68 MxSgAt=     7 MxSgA2=     7.
 Leave Link  302 at Sat Feb 16 13:50:05 2019, MaxMem=   196608000 cpu:         5.6
 (Enter /cm/shared/c3ddb/gaussian/09.d01/g09/l303.exe)
 DipDrv:  MaxL=1.
 Leave Link  303 at Sat Feb 16 13:50:05 2019, MaxMem=   196608000 cpu:         1.1
 (Enter /cm/shared/c3ddb/gaussian/09.d01/g09/l401.exe)
 ExpMin= 1.03D-01 ExpMax= 6.29D+03 ExpMxC= 9.49D+02 IAcc=1 IRadAn=         1 AccDes= 0.00D+00
 Harris functional with IExCor=  402 and IRadAn=       1 diagonalized for initial guess.
 HarFok:  IExCor=  402 AccDes= 0.00D+00 IRadAn=         1 IDoV= 1 UseB2=F ITyADJ=14
 ICtDFT=  3500011 ScaDFX=  1.000000  1.000000  1.000000  1.000000
 FoFCou: FMM=F IPFlag=           0 FMFlag=      100000 FMFlg1=           0
         NFxFlg=           0 DoJE=T BraDBF=F KetDBF=T FulRan=T
         wScrn=  0.000000 ICntrl=     500 IOpCl=  0 I1Cent=   200000004 NGrid=           0
         NMat0=    1 NMatS0=      1 NMatT0=    0 NMatD0=    1 NMtDS0=    0 NMtDT0=    0
 Petite list used in FoFCou.
 Harris En= -95.9225537322550    
 JPrj=0 DoOrth=F DoCkMO=F.
 Initial guess orbital symmetries:
       Occupied  (A') (A') (A') (A') (A") (A') (A') (A") (A')
       Virtual   (A') (A') (A") (A') (A") (A') (A") (A') (A') (A")
                 (A') (A') (A") (A') (A') (A") (A') (A') (A') (A")
                 (A') (A") (A') (A") (A") (A') (A') (A') (A") (A")
                 (A') (A") (A') (A') (A") (A') (A') (A") (A') (A")
                 (A') (A') (A") (A') (A") (A') (A') (A') (A") (A')
                 (A') (A") (A') (A") (A') (A') (A')
 The electronic state of the initial guess is 1-A'.
 Leave Link  401 at Sat Feb 16 13:50:06 2019, MaxMem=   196608000 cpu:         5.5
 (Enter /cm/shared/c3ddb/gaussian/09.d01/g09/l502.exe)
 Closed shell SCF:
 Using DIIS extrapolation, IDIIS=  1040.
 Integral symmetry usage will be decided dynamically.
 Keep R1 ints in memory in symmetry-blocked form, NReq=3708352.
 IVT=       20976 IEndB=       20976 NGot=   196608000 MDV=   195345081
 LenX=   195345081 LenY=   195340016
 Requested convergence on RMS density matrix=1.00D-08 within  64 cycles.
 Requested convergence on MAX density matrix=1.00D-06.
 Requested convergence on             energy=1.00D-06.
 No special actions if energy rises.
 FoFCou: FMM=F IPFlag=           0 FMFlag=           0 FMFlg1=           0
         NFxFlg=           0 DoJE=F BraDBF=F KetDBF=F FulRan=T
         wScrn=  0.000000 ICntrl=     600 IOpCl=  0 I1Cent=           0 NGrid=           0
         NMat0=    1 NMatS0=   2211 NMatT0=    0 NMatD0=    1 NMtDS0=    0 NMtDT0=    0
 Petite list used in FoFCou.
 Integral accuracy reduced to 1.0D-05 until final iterations.

 Cycle   1  Pass 0  IDiag  1:
 E= -95.7800128216984    
 DIIS: error= 5.74D-02 at cycle   1 NSaved=   1.
 NSaved= 1 IEnMin= 1 EnMin= -95.7800128216984     IErMin= 1 ErrMin= 5.74D-02
 ErrMax= 5.74D-02  0.00D+00 EMaxC= 1.00D-01 BMatC= 1.24D-01 BMatP= 1.24D-01
 IDIUse=3 WtCom= 4.26D-01 WtEn= 5.74D-01
 Coeff-Com:  0.100D+01
 Coeff-En:   0.100D+01
 Coeff:      0.100D+01
 Gap=     0.171 Goal=   None    Shift=    0.000
 GapD=    0.171 DampG=1.000 DampE=0.500 DampFc=0.5000 IDamp=-1.
 Damping current iteration by 5.00D-01
 RMSDP=7.89D-03 MaxDP=1.10D-01              OVMax= 1.74D-01

 Cycle   2  Pass 0  IDiag  1:
 E= -95.8225975397188     Delta-E=       -0.042584718020 Rises=F Damp=T
 DIIS: error= 8.34D-03 at cycle   2 NSaved=   2.
 NSaved= 2 IEnMin= 2 EnMin= -95.8225975397188     IErMin= 2 ErrMin= 8.34D-03
 ErrMax= 8.34D-03  0.00D+00 EMaxC= 1.00D-01 BMatC= 6.62D-03 BMatP= 1.24D-01
 IDIUse=3 WtCom= 9.17D-01 WtEn= 8.34D-02
 Coeff-Com:  0.118D+00 0.882D+00
 Coeff-En:   0.224D+00 0.776D+00
 Coeff:      0.126D+00 0.874D+00
 Gap=     0.278 Goal=   None    Shift=    0.000
 RMSDP=1.25D-03 MaxDP=1.31D-02 DE=-4.26D-02 OVMax= 1.11D-01

 Cycle   3  Pass 0  IDiag  1:
 E= -95.8874830457033     Delta-E=       -0.064885505984 Rises=F Damp=F
 DIIS: error= 4.18D-03 at cycle   3 NSaved=   3.
 NSaved= 3 IEnMin= 3 EnMin= -95.8874830457033     IErMin= 3 ErrMin= 4.18D-03
 ErrMax= 4.18D-03  0.00D+00 EMaxC= 1.00D-01 BMatC= 1.13D-03 BMatP= 6.62D-03
 IDIUse=3 WtCom= 9.58D-01 WtEn= 4.18D-02
 Coeff-Com:  0.204D-02 0.259D+00 0.739D+00
 Coeff-En:   0.000D+00 0.000D+00 0.100D+01
 Coeff:      0.196D-02 0.248D+00 0.750D+00
 Gap=     0.275 Goal=   None    Shift=    0.000
 RMSDP=4.03D-04 MaxDP=6.68D-03 DE=-6.49D-02 OVMax= 1.11D-02

 Cycle   4  Pass 0  IDiag  1:
 E= -95.8881381446852     Delta-E=       -0.000655098982 Rises=F Damp=F
 DIIS: error= 2.27D-03 at cycle   4 NSaved=   4.
 NSaved= 4 IEnMin= 4 EnMin= -95.8881381446852     IErMin= 4 ErrMin= 2.27D-03
 ErrMax= 2.27D-03  0.00D+00 EMaxC= 1.00D-01 BMatC= 3.46D-04 BMatP= 1.13D-03
 IDIUse=3 WtCom= 9.77D-01 WtEn= 2.27D-02
 Coeff-Com: -0.647D-02 0.667D-01 0.388D+00 0.552D+00
 Coeff-En:   0.000D+00 0.000D+00 0.209D+00 0.791D+00
 Coeff:     -0.633D-02 0.652D-01 0.384D+00 0.557D+00
 Gap=     0.277 Goal=   None    Shift=    0.000
 RMSDP=1.69D-04 MaxDP=3.94D-03 DE=-6.55D-04 OVMax= 5.26D-03

 Cycle   5  Pass 0  IDiag  1:
 E= -95.8884278879253     Delta-E=       -0.000289743240 Rises=F Damp=F
 DIIS: error= 6.35D-04 at cycle   5 NSaved=   5.
 NSaved= 5 IEnMin= 5 EnMin= -95.8884278879253     IErMin= 5 ErrMin= 6.35D-04
 ErrMax= 6.35D-04  0.00D+00 EMaxC= 1.00D-01 BMatC= 1.09D-05 BMatP= 3.46D-04
 IDIUse=3 WtCom= 9.94D-01 WtEn= 6.35D-03
 Coeff-Com: -0.224D-02 0.307D-02 0.876D-01 0.212D+00 0.699D+00
 Coeff-En:   0.000D+00 0.000D+00 0.000D+00 0.000D+00 0.100D+01
 Coeff:     -0.223D-02 0.305D-02 0.871D-01 0.211D+00 0.701D+00
 Gap=     0.276 Goal=   None    Shift=    0.000
 RMSDP=2.85D-05 MaxDP=5.31D-04 DE=-2.90D-04 OVMax= 8.02D-04

 Cycle   6  Pass 0  IDiag  1:
 E= -95.8884368647600     Delta-E=       -0.000008976835 Rises=F Damp=F
 DIIS: error= 1.99D-05 at cycle   6 NSaved=   6.
 NSaved= 6 IEnMin= 6 EnMin= -95.8884368647600     IErMin= 6 ErrMin= 1.99D-05
 ErrMax= 1.99D-05  0.00D+00 EMaxC= 1.00D-01 BMatC= 2.79D-08 BMatP= 1.09D-05
 IDIUse=1 WtCom= 1.00D+00 WtEn= 0.00D+00
 Coeff-Com:  0.230D-03-0.786D-03 0.167D-02 0.496D-02 0.396D-01 0.954D+00
 Coeff:      0.230D-03-0.786D-03 0.167D-02 0.496D-02 0.396D-01 0.954D+00
 Gap=     0.276 Goal=   None    Shift=    0.000
 RMSDP=2.65D-06 MaxDP=2.82D-05 DE=-8.98D-06 OVMax= 7.08D-05

 Initial convergence to 1.0D-05 achieved.  Increase integral accuracy.
 Cycle   7  Pass 1  IDiag  1:
 E= -95.8884439372347     Delta-E=       -0.000007072475 Rises=F Damp=F
 DIIS: error= 5.09D-06 at cycle   1 NSaved=   1.
 NSaved= 1 IEnMin= 1 EnMin= -95.8884439372347     IErMin= 1 ErrMin= 5.09D-06
 ErrMax= 5.09D-06  0.00D+00 EMaxC= 1.00D-01 BMatC= 1.89D-09 BMatP= 1.89D-09
 IDIUse=1 WtCom= 1.00D+00 WtEn= 0.00D+00
 Coeff-Com:  0.100D+01
 Coeff:      0.100D+01
 Gap=     0.276 Goal=   None    Shift=    0.000
 RMSDP=2.65D-06 MaxDP=2.82D-05 DE=-7.07D-06 OVMax= 2.35D-05

 Cycle   8  Pass 1  IDiag  1:
 E= -95.8884439390430     Delta-E=       -0.000000001808 Rises=F Damp=F
 DIIS: error= 3.46D-06 at cycle   2 NSaved=   2.
 NSaved= 2 IEnMin= 2 EnMin= -95.8884439390430     IErMin= 2 ErrMin= 3.46D-06
 ErrMax= 3.46D-06  0.00D+00 EMaxC= 1.00D-01 BMatC= 4.98D-10 BMatP= 1.89D-09
 IDIUse=1 WtCom= 1.00D+00 WtEn= 0.00D+00
 Coeff-Com:  0.278D+00 0.722D+00
 Coeff:      0.278D+00 0.722D+00
 Gap=     0.276 Goal=   None    Shift=    0.000
 RMSDP=3.61D-07 MaxDP=4.64D-06 DE=-1.81D-09 OVMax= 9.60D-06

 Cycle   9  Pass 1  IDiag  1:
 E= -95.8884439393294     Delta-E=       -0.000000000286 Rises=F Damp=F
 DIIS: error= 2.20D-06 at cycle   3 NSaved=   3.
 NSaved= 3 IEnMin= 3 EnMin= -95.8884439393294     IErMin= 3 ErrMin= 2.20D-06
 ErrMax= 2.20D-06  0.00D+00 EMaxC= 1.00D-01 BMatC= 2.44D-10 BMatP= 4.98D-10
 IDIUse=1 WtCom= 1.00D+00 WtEn= 0.00D+00
 Coeff-Com:  0.357D-01 0.407D+00 0.558D+00
 Coeff:      0.357D-01 0.407D+00 0.558D+00
 Gap=     0.276 Goal=   None    Shift=    0.000
 RMSDP=1.33D-07 MaxDP=2.73D-06 DE=-2.86D-10 OVMax= 3.62D-06

 Cycle  10  Pass 1  IDiag  1:
 E= -95.8884439395197     Delta-E=       -0.000000000190 Rises=F Damp=F
 DIIS: error= 2.66D-07 at cycle   4 NSaved=   4.
 NSaved= 4 IEnMin= 4 EnMin= -95.8884439395197     IErMin= 4 ErrMin= 2.66D-07
 ErrMax= 2.66D-07  0.00D+00 EMaxC= 1.00D-01 BMatC= 4.91D-12 BMatP= 2.44D-10
 IDIUse=1 WtCom= 1.00D+00 WtEn= 0.00D+00
 Coeff-Com: -0.796D-02 0.105D+00 0.195D+00 0.709D+00
 Coeff:     -0.796D-02 0.105D+00 0.195D+00 0.709D+00
 Gap=     0.276 Goal=   None    Shift=    0.000
 RMSDP=2.70D-08 MaxDP=4.77D-07 DE=-1.90D-10 OVMax= 5.93D-07

 Cycle  11  Pass 1  IDiag  1:
 E= -95.8884439395238     Delta-E=       -0.000000000004 Rises=F Damp=F
 DIIS: error= 9.21D-08 at cycle   5 NSaved=   5.
 NSaved= 5 IEnMin= 5 EnMin= -95.8884439395238     IErMin= 5 ErrMin= 9.21D-08
 ErrMax= 9.21D-08  0.00D+00 EMaxC= 1.00D-01 BMatC= 3.25D-13 BMatP= 4.91D-12
 IDIUse=1 WtCom= 1.00D+00 WtEn= 0.00D+00
 Coeff-Com: -0.393D-02 0.348D-01 0.658D-01 0.307D+00 0.596D+00
 Coeff:     -0.393D-02 0.348D-01 0.658D-01 0.307D+00 0.596D+00
 Gap=     0.276 Goal=   None    Shift=    0.000
 RMSDP=7.38D-09 MaxDP=1.27D-07 DE=-4.18D-12 OVMax= 1.77D-07

 SCF Done:  E(RB3LYP) =  -95.8884439395     A.U. after   11 cycles
            NFock= 11  Conv=0.74D-08     -V/T= 2.0042
 KE= 9.549137070049D+01 PE=-3.069912495683D+02 EE= 7.368716143932D+01
 Leave Link  502 at Sat Feb 16 13:50:14 2019, MaxMem=   196608000 cpu:        52.2
 (Enter /cm/shared/c3ddb/gaussian/09.d01/g09/l508.exe)
 QCSCF skips out because SCF is already converged.
 Leave Link  508 at Sat Feb 16 13:50:14 2019, MaxMem=   196608000 cpu:         0.0
 (Enter /cm/shared/c3ddb/gaussian/09.d01/g09/l801.exe)
 DoSCS=F DFT=T ScalE2(SS,OS)=  1.000000  1.000000
 Range of M.O.s used for correlation:     1    66
 NBasis=    66 NAE=     9 NBE=     9 NFC=     0 NFV=     0
 NROrb=     66 NOA=     9 NOB=     9 NVA=    57 NVB=    57
 Leave Link  801 at Sat Feb 16 13:50:14 2019, MaxMem=   196608000 cpu:         0.2
 (Enter /cm/shared/c3ddb/gaussian/09.d01/g09/l1101.exe)
 Using compressed storage, NAtomX=     7.
 Will process      8 centers per pass.
 Leave Link 1101 at Sat Feb 16 13:50:15 2019, MaxMem=   196608000 cpu:         5.8
 (Enter /cm/shared/c3ddb/gaussian/09.d01/g09/l1102.exe)
 Symmetrizing basis deriv contribution to polar:
 IMax=3 JMax=2 DiffMx= 0.00D+00
 Leave Link 1102 at Sat Feb 16 13:50:15 2019, MaxMem=   196608000 cpu:         0.6
 (Enter /cm/shared/c3ddb/gaussian/09.d01/g09/l1110.exe)
 Forming Gx(P) for the SCF density, NAtomX=     7.
 Integral derivatives from FoFJK, PRISM(SPDF).
 Do as many integral derivatives as possible in FoFJK.
 G2DrvN: MDV=     196607840.
 G2DrvN: will do     8 centers at a time, making    1 passes.
 Calling FoFCou, ICntrl=  3107 FMM=F I1Cent=   0 AccDes= 0.00D+00.
 FoFJK:  IHMeth= 1 ICntrl=    3107 DoSepK=F KAlg= 0 I1Cent=   0 FoldK=F
 IRaf=         0 NMat=   1 IRICut=       1 DoRegI=T DoRafI=F ISym2E= 1.
 FoFCou: FMM=F IPFlag=           0 FMFlag=      100000 FMFlg1=           0
         NFxFlg=           0 DoJE=F BraDBF=F KetDBF=F FulRan=T
         wScrn=  0.000000 ICntrl=    3107 IOpCl=  0 I1Cent=           0 NGrid=           0
         NMat0=    1 NMatS0=      1 NMatT0=    0 NMatD0=    1 NMtDS0=    0 NMtDT0=    0
 Petite list used in FoFCou.
 End of G2Drv F.D. properties file   721 does not exist.
 End of G2Drv F.D. properties file   722 does not exist.
 End of G2Drv F.D. properties file   788 does not exist.
 Leave Link 1110 at Sat Feb 16 13:50:17 2019, MaxMem=   196608000 cpu:        16.3
 (Enter /cm/shared/c3ddb/gaussian/09.d01/g09/l1002.exe)
 Minotr:  Closed shell wavefunction.
          IDoAtm=1111111
          Direct CPHF calculation.
          Differentiating once with respect to nuclear coordinates.
          Using symmetry in CPHF.
          Requested convergence is 1.0D-08 RMS, and 1.0D-07 maximum.
          Secondary convergence is 1.0D-12 RMS, and 1.0D-12 maximum.
          NewPWx=T KeepS1=F KeepF1=F KeepIn=T MapXYZ=F SortEE=F KeepMc=T.
          MDV=     196607860 using IRadAn=       2.
 Generate precomputed XC quadrature information.
 Keep R1 ints in memory in symmetry-blocked form, NReq=3689836.
 FoFCou: FMM=F IPFlag=           0 FMFlag=           0 FMFlg1=           0
         NFxFlg=           0 DoJE=F BraDBF=F KetDBF=F FulRan=T
         wScrn=  0.000000 ICntrl=     600 IOpCl=  0 I1Cent=           0 NGrid=           0
         NMat0=    1 NMatS0=   2211 NMatT0=    0 NMatD0=    1 NMtDS0=    0 NMtDT0=    0
 Petite list used in FoFCou.
          Solving linear equations simultaneously, MaxMat=       0.
          There are    18 degrees of freedom in the 1st order CPHF.  IDoFFX=4 NUNeed=    18.
     15 vectors produced by pass  0 Test12= 2.85D-15 5.56D-09 XBig12= 6.94D-02 1.12D-01.
 AX will form    15 AO Fock derivatives at one time.
     15 vectors produced by pass  1 Test12= 2.85D-15 5.56D-09 XBig12= 1.39D-02 4.57D-02.
     15 vectors produced by pass  2 Test12= 2.85D-15 5.56D-09 XBig12= 3.57D-04 5.06D-03.
     15 vectors produced by pass  3 Test12= 2.85D-15 5.56D-09 XBig12= 4.46D-06 5.65D-04.
     15 vectors produced by pass  4 Test12= 2.85D-15 5.56D-09 XBig12= 1.51D-08 2.94D-05.
      9 vectors produced by pass  5 Test12= 2.85D-15 5.56D-09 XBig12= 1.84D-11 1.08D-06.
      1 vectors produced by pass  6 Test12= 2.85D-15 5.56D-09 XBig12= 1.18D-14 2.24D-08.
 InvSVY:  IOpt=1 It=  1 EMax= 1.55D-15
 Solved reduced A of dimension    85 with    15 vectors.
 FullF1:  Do perturbations    4 to    18.
 End of Minotr F.D. properties file   721 does not exist.
 End of Minotr F.D. properties file   722 does not exist.
 End of Minotr F.D. properties file   788 does not exist.
 Leave Link 1002 at Sat Feb 16 13:50:25 2019, MaxMem=   196608000 cpu:        55.2
 (Enter /cm/shared/c3ddb/gaussian/09.d01/g09/l601.exe)
 Copying SCF densities to generalized density rwf, IOpCl= 0 IROHF=0.

 **********************************************************************

            Population analysis using the SCF density.

 **********************************************************************

 Orbital symmetries:
       Occupied  (A') (A') (A') (A') (A") (A') (A') (A") (A')
       Virtual   (A') (A') (A") (A') (A") (A') (A") (A') (A') (A")
                 (A') (A') (A") (A') (A') (A") (A') (A') (A') (A")
                 (A') (A") (A') (A") (A") (A') (A') (A") (A') (A")
                 (A') (A") (A') (A') (A") (A') (A') (A") (A') (A")
                 (A') (A') (A") (A') (A") (A') (A') (A') (A") (A')
                 (A') (A") (A') (A") (A') (A') (A')
 The electronic state is 1-A'.
 Alpha  occ. eigenvalues --  -14.28197 -10.18279  -0.87127  -0.65834  -0.48692
 Alpha  occ. eigenvalues --   -0.43793  -0.40087  -0.36740  -0.23442
 Alpha virt. eigenvalues --    0.04196   0.07866   0.09778   0.11790   0.13934
 Alpha virt. eigenvalues --    0.21428   0.30996   0.32994   0.37564   0.37988
 Alpha virt. eigenvalues --    0.48208   0.54469   0.58438   0.58639   0.63857
 Alpha virt. eigenvalues --    0.71826   0.72970   0.74147   1.02703   1.05785
 Alpha virt. eigenvalues --    1.05877   1.32458   1.38480   1.46075   1.48328
 Alpha virt. eigenvalues --    1.49883   1.55194   1.62539   1.64540   1.70666
 Alpha virt. eigenvalues --    1.75459   1.84355   1.95174   2.02433   2.12594
 Alpha virt. eigenvalues --    2.15188   2.28490   2.34930   2.40642   2.43115
 Alpha virt. eigenvalues --    2.43651   2.54072   2.54500   2.58597   2.73258
 Alpha virt. eigenvalues --    2.73796   2.85515   2.95030   3.10606   3.38585
 Alpha virt. eigenvalues --    3.74895   3.80269   4.01082   4.72007   4.83285
 Alpha virt. eigenvalues --   23.87917  35.56838
          Condensed to atoms (all electrons):
               1          2          3          4          5          6
     1  N    6.503388   0.329141  -0.030929  -0.044635  -0.030929   0.372696
     2  C    0.329141   4.760393   0.402581   0.408124   0.402581  -0.048675
     3  H   -0.030929   0.402581   0.586901  -0.042021  -0.027267  -0.008547
     4  H   -0.044635   0.408124  -0.042021   0.648229  -0.042021  -0.005857
     5  H   -0.030929   0.402581  -0.027267  -0.042021   0.586901   0.010078
     6  H    0.372696  -0.048675  -0.008547  -0.005857   0.010078   0.536469
     7  H    0.372696  -0.048675   0.010078  -0.005857  -0.008547  -0.043388
               7
     1  N    0.372696
     2  C   -0.048675
     3  H    0.010078
     4  H   -0.005857
     5  H   -0.008547
     6  H   -0.043388
     7  H    0.536469
 Mulliken charges:
               1
     1  N   -0.471427
     2  C   -0.205469
     3  H    0.109205
     4  H    0.084037
     5  H    0.109205
     6  H    0.187224
     7  H    0.187224
 Sum of Mulliken charges =   0.00000
 Mulliken charges with hydrogens summed into heavy atoms:
               1
     1  N   -0.096979
     2  C    0.096979
 APT charges:
               1
     1  N   -0.886484
     2  C   -0.863698
     3  H    0.322962
     4  H    0.288054
     5  H    0.322962
     6  H    0.408103
     7  H    0.408103
 Sum of APT charges =   0.00000
 APT charges with hydrogens summed into heavy atoms:
               1
     1  N   -0.070279
     2  C    0.070279
 Electronic spatial extent (au):  <R**2>=             95.5177
 Charge=              0.0000 electrons
 Dipole moment (field-independent basis, Debye):
    X=              1.3354    Y=              0.3324    Z=              0.0000  Tot=              1.3761
 Quadrupole moment (field-independent basis, Debye-Ang):
   XX=            -14.8847   YY=            -14.2098   ZZ=            -12.6697
   XY=             -2.1283   XZ=              0.0000   YZ=              0.0000
 Traceless Quadrupole moment (field-independent basis, Debye-Ang):
   XX=             -0.9633   YY=             -0.2884   ZZ=              1.2517
   XY=             -2.1283   XZ=              0.0000   YZ=              0.0000
 Octapole moment (field-independent basis, Debye-Ang**2):
  XXX=              1.3624  YYY=             -2.5178  ZZZ=              0.0000  XYY=              2.3097
  XXY=              0.0466  XXZ=              0.0000  XZZ=              0.4613  YZZ=             -1.9996
  YYZ=              0.0000  XYZ=              0.0000
 Hexadecapole moment (field-independent basis, Debye-Ang**3):
 XXXX=            -24.6047 YYYY=            -76.5721 ZZZZ=            -23.9913 XXXY=              1.2405
 XXXZ=              0.0000 YYYX=             -1.2047 YYYZ=              0.0000 ZZZX=              0.0000
 ZZZY=              0.0000 XXYY=            -16.8972 XXZZ=             -7.7321 YYZZ=            -14.9889
 XXYZ=              0.0000 YYXZ=              0.0000 ZZXY=             -1.2034
 N-N= 4.192427348893D+01 E-N=-3.069912434632D+02  KE= 9.549137070049D+01
 Symmetry A'   KE= 9.078586521691D+01
 Symmetry A"   KE= 4.705505483579D+00
  Exact polarizability:   0.000   0.000   0.000   0.000   0.000   0.000
 Approx polarizability:  24.074  -0.805  27.454   0.000   0.000  27.563
 No NMR shielding tensors so no spin-rotation constants.
 Leave Link  601 at Sat Feb 16 13:50:27 2019, MaxMem=   196608000 cpu:         8.5
 (Enter /cm/shared/c3ddb/gaussian/09.d01/g09/l701.exe)
 Compute integral second derivatives.
 ... and contract with generalized density number  0.
 Leave Link  701 at Sat Feb 16 13:50:28 2019, MaxMem=   196608000 cpu:         4.1
 (Enter /cm/shared/c3ddb/gaussian/09.d01/g09/l702.exe)
 L702 exits ... SP integral derivatives will be done elsewhere.
 Leave Link  702 at Sat Feb 16 13:50:28 2019, MaxMem=   196608000 cpu:         0.1
 (Enter /cm/shared/c3ddb/gaussian/09.d01/g09/l703.exe)
 Compute integral second derivatives, UseDBF=F ICtDFT=           0.
 Integral derivatives from FoFJK, PRISM(SPDF).
 Calling FoFJK, ICntrl=    100147 FMM=F ISym2X=1 I1Cent= 0 IOpClX= 0 NMat=1 NMatS=1 NMatT=0.
 FoFJK:  IHMeth= 1 ICntrl=  100147 DoSepK=F KAlg= 0 I1Cent=   0 FoldK=F
 IRaf=         0 NMat=   1 IRICut=       1 DoRegI=T DoRafI=F ISym2E= 1.
 FoFCou: FMM=F IPFlag=           0 FMFlag=      100000 FMFlg1=         800
         NFxFlg=           0 DoJE=F BraDBF=F KetDBF=F FulRan=T
         wScrn=  0.000000 ICntrl=  100147 IOpCl=  0 I1Cent=           0 NGrid=           0
         NMat0=    1 NMatS0=      1 NMatT0=    0 NMatD0=    1 NMtDS0=    0 NMtDT0=    0
 Petite list used in FoFCou.
 Leave Link  703 at Sat Feb 16 13:50:31 2019, MaxMem=   196608000 cpu:        17.9
 (Enter /cm/shared/c3ddb/gaussian/09.d01/g09/l716.exe)
 Dipole        = 5.25374312D-01 1.30778226D-01-4.22225836D-16
 Polarizability= 0.00000000D+00 0.00000000D+00 0.00000000D+00
                 0.00000000D+00 0.00000000D+00 0.00000000D+00
 ***** Axes restored to original set *****
 -------------------------------------------------------------------
 Center     Atomic                   Forces (Hartrees/Bohr)
 Number     Number              X              Y              Z
 -------------------------------------------------------------------
      1        7          -0.000080623   -0.000017987    0.000030521
      2        6          -0.000008268    0.000001312   -0.000002082
      3        1           0.000005158    0.000014517    0.000023206
      4        1          -0.000009445    0.000028013   -0.000046159
      5        1           0.000004899   -0.000027336   -0.000002142
      6        1           0.000044452    0.000051469    0.000029051
      7        1           0.000043826   -0.000049988   -0.000032395
 -------------------------------------------------------------------
 Cartesian Forces:  Max     0.000080623 RMS     0.000033327
 Force constants in Cartesian coordinates: 
                1             2             3             4             5 
      1  0.534440D+00
      2 -0.396877D-01  0.549694D+00
      3  0.669545D-01  0.205974D+00  0.333414D+00
      4 -0.203304D+00 -0.888143D-02  0.157092D-01  0.484781D+00
      5 -0.340728D-01 -0.932252D-01 -0.121097D-01 -0.166471D-01  0.572792D+00
      6  0.573044D-01 -0.123663D-01 -0.809343D-01  0.285427D-01  0.259577D-01
      7 -0.222875D-01 -0.220980D-01 -0.223569D-01 -0.965965D-01 -0.533109D-01
      8 -0.385528D-02 -0.249496D-02 -0.258496D-02 -0.572524D-01 -0.111621D+00
      9  0.493036D-02  0.678070D-02  0.106258D-01 -0.877840D-01 -0.972549D-01
     10 -0.161414D-01 -0.193989D-01  0.322314D-01 -0.511865D-01 -0.787269D-02
     11 -0.664298D-02  0.129587D-02  0.378534D-02 -0.694616D-02 -0.113700D+00
     12  0.111692D-01  0.391528D-02 -0.303113D-02  0.114483D-01  0.999075D-01
     13 -0.219552D-01  0.302861D-01  0.934311D-02 -0.946858D-01  0.955152D-01
     14 -0.229614D-02  0.928202D-02  0.422748D-03  0.102746D+00 -0.257208D+00
     15  0.573273D-02 -0.908897D-02 -0.148349D-02  0.101395D-01 -0.195887D-01
     16 -0.134000D+00  0.141226D+00  0.170945D-01 -0.193397D-01  0.359212D-01
     17  0.154283D+00 -0.340526D+00 -0.650047D-01 -0.752489D-02  0.571567D-02
     18 -0.493050D-02 -0.194378D-01 -0.224206D-01  0.102859D-01 -0.746395D-02
     19 -0.136752D+00 -0.814459D-01 -0.118976D+00 -0.196690D-01 -0.195329D-01
     20 -0.677278D-01 -0.124025D+00 -0.130482D+00 -0.549423D-02 -0.275367D-02
     21 -0.141161D+00 -0.175777D+00 -0.236171D+00  0.116585D-01  0.105520D-01
                6             7             8             9            10 
      6  0.545259D+00
      7 -0.816657D-01  0.115579D+00
      8 -0.941357D-01  0.667061D-01  0.116736D+00
      9 -0.194645D+00  0.921107D-01  0.103936D+00  0.205719D+00
     10  0.129782D-01  0.205013D-02  0.806578D-02 -0.111747D-01  0.599117D-01
     11  0.998981D-01  0.170790D-02  0.918872D-02 -0.137410D-01  0.133714D-01
     12 -0.218322D+00  0.151084D-03  0.133255D-01 -0.210582D-01 -0.222009D-01
     13  0.945263D-02  0.768043D-02 -0.131978D-01 -0.263469D-03  0.202205D-02
     14 -0.227413D-01  0.615097D-02 -0.136510D-01 -0.746516D-03  0.600795D-02
     15 -0.509689D-01  0.113255D-01 -0.217134D-01 -0.198779D-02 -0.120865D-01
     16  0.349704D-02  0.682279D-03  0.226619D-04 -0.845403D-03  0.166656D-02
     17  0.600244D-02  0.511092D-03  0.343208D-03 -0.164640D-03 -0.102098D-02
     18 -0.459383D-02 -0.914954D-03  0.401504D-03  0.290095D-03 -0.448099D-03
     19 -0.301092D-01 -0.710812D-02 -0.489049D-03  0.302649D-02  0.167746D-02
     20 -0.261486D-02  0.332770D-03  0.149914D-02  0.119058D-02  0.847479D-03
     21  0.420477D-02  0.135038D-02  0.771394D-03  0.105619D-02  0.700585D-03
               11            12            13            14            15 
     11  0.117295D+00
     12 -0.114745D+00  0.237573D+00
     13 -0.935207D-03 -0.145004D-02  0.113381D+00
     14 -0.147834D-01 -0.125372D-02 -0.110976D+00  0.273983D+00
     15  0.259482D-01  0.294209D-02 -0.165827D-01  0.235473D-01  0.506700D-01
     16 -0.222827D-03  0.473112D-03 -0.712959D-02 -0.236823D-02  0.188244D-02
     17  0.105155D-02 -0.336238D-03 -0.126593D-02  0.199037D-02  0.522527D-03
     18 -0.153382D-02  0.253801D-03  0.381497D-03  0.961313D-03  0.586445D-03
     19 -0.332121D-03  0.409204D-03  0.687057D-03  0.735024D-03 -0.410819D-03
     20 -0.347587D-03 -0.813346D-03  0.573467D-03  0.386911D-03  0.373048D-03
     21  0.388125D-03  0.164204D-02 -0.880989D-03 -0.189766D-03  0.241614D-03
               16            17            18            19            20 
     16  0.148489D+00
     17 -0.156121D+00  0.351151D+00
     18 -0.189044D-01  0.553402D-01  0.328151D-01
     19  0.963219D-02  0.111392D-01  0.145306D-01  0.151532D+00
     20 -0.184575D-01 -0.197249D-01 -0.282674D-01  0.899258D-01  0.144965D+00
     21 -0.319727D-02  0.364045D-02 -0.693107D-02  0.131530D+00  0.160614D+00
               21 
     21  0.235957D+00
 FormGI is forming the generalized inverse of G from B-inverse, IUseBI=4.
 Force constants in internal coordinates: 
                1             2             3             4             5 
      1  0.327554D+00
      2  0.205258D-02  0.443595D+00
      3  0.205258D-02 -0.417700D-03  0.443595D+00
      4  0.100634D-01  0.384849D-03 -0.149730D-02  0.333513D+00
      5  0.171886D-01  0.626305D-03  0.626305D-03  0.457692D-02  0.309488D+00
      6  0.100634D-01 -0.149730D-02  0.384849D-03  0.313278D-02  0.457692D-02
      7  0.332358D-01  0.848179D-02 -0.331469D-02 -0.504196D-03 -0.769453D-03
      8  0.332358D-01 -0.331469D-02  0.848179D-02  0.345598D-02 -0.769454D-03
      9 -0.203377D-01  0.741643D-02  0.741643D-02 -0.141032D-02 -0.216745D-03
     10  0.233265D-01 -0.567654D-03  0.593630D-02  0.633350D-03 -0.465962D-02
     11  0.198151D-01 -0.379928D-02 -0.379928D-02 -0.545628D-02 -0.512155D-02
     12  0.233265D-01  0.593630D-02 -0.567654D-03 -0.446853D-02 -0.465962D-02
     13 -0.239556D-01  0.763766D-03 -0.731822D-03  0.620084D-02  0.877141D-02
     14 -0.230287D-01 -0.157886D-02 -0.157886D-02  0.567755D-02 -0.275393D-02
     15 -0.239556D-01 -0.731822D-03  0.763766D-03 -0.161466D-02  0.877141D-02
     16  0.670302D-02  0.716654D-02  0.608014D-02  0.283801D-03 -0.488016D-02
     17  0.732587D-02  0.505074D-02  0.705283D-02  0.507504D-02 -0.588570D-03
     18  0.794871D-02  0.602343D-02  0.493702D-02 -0.436361D-02  0.370302D-02
     19 -0.794871D-02 -0.493702D-02 -0.602343D-02  0.251250D-03 -0.370302D-02
     20 -0.732587D-02 -0.705283D-02 -0.505074D-02  0.504249D-02  0.588570D-03
     21 -0.670302D-02 -0.608014D-02 -0.716654D-02 -0.439616D-02  0.488016D-02
                6             7             8             9            10 
      6  0.333513D+00
      7  0.345598D-02  0.145640D+00
      8 -0.504196D-03 -0.327482D-01  0.145640D+00
      9 -0.141032D-02 -0.505973D-01 -0.505973D-01  0.568275D-01
     10 -0.446853D-02 -0.808915D-02  0.180764D-01 -0.429730D-02  0.119026D+00
     11 -0.545628D-02 -0.415078D-02 -0.415078D-02  0.339679D-02 -0.288580D-01
     12  0.633350D-03  0.180764D-01 -0.808915D-02 -0.429730D-02 -0.201198D-01
     13 -0.161466D-02  0.338354D-02 -0.591794D-02  0.120789D-02 -0.452803D-01
     14  0.567755D-02 -0.352422D-02 -0.352422D-02  0.298170D-02 -0.389324D-01
     15  0.620084D-02 -0.591794D-02  0.338354D-02  0.120789D-02  0.107216D-01
     16  0.439616D-02  0.519282D-02  0.154466D-02  0.396566D-02 -0.300292D-03
     17 -0.504249D-02  0.426897D-03  0.488913D-02  0.460797D-02  0.123534D-01
     18 -0.251250D-03  0.377137D-02  0.123211D-03  0.525028D-02 -0.953612D-02
     19  0.436361D-02 -0.123211D-03 -0.377137D-02 -0.525028D-02 -0.988622D-03
     20 -0.507504D-02 -0.488913D-02 -0.426897D-03 -0.460797D-02  0.116650D-01
     21 -0.283801D-03 -0.154466D-02 -0.519282D-02 -0.396566D-02 -0.102244D-01
               11            12            13            14            15 
     11  0.121212D+00
     12 -0.288580D-01  0.119026D+00
     13 -0.404184D-01  0.107216D-01  0.614646D-01
     14  0.106736D-01 -0.389324D-01  0.893007D-02  0.550118D-01
     15 -0.404184D-01 -0.452803D-01  0.908323D-02  0.893007D-02  0.614646D-01
     16 -0.103205D-01  0.102244D-01 -0.868747D-02  0.107195D-01 -0.183683D-03
     17 -0.392835D-03 -0.116650D-01  0.838100D-02 -0.274036D-03 -0.841263D-02
     18  0.953487D-02  0.988622D-03  0.152060D-03 -0.112675D-01  0.865584D-02
     19 -0.953487D-02  0.953612D-02 -0.865584D-02  0.112675D-01 -0.152060D-03
     20  0.392835D-03 -0.123534D-01  0.841263D-02  0.274036D-03 -0.838100D-02
     21  0.103205D-01  0.300292D-03  0.183683D-03 -0.107195D-01  0.868747D-02
               16            17            18            19            20 
     16  0.172134D-01
     17 -0.170619D-02  0.186234D-01
     18 -0.127865D-02 -0.176676D-02  0.170922D-01
     19  0.838340D-02 -0.104756D-01 -0.998749D-02  0.170922D-01
     20 -0.105362D-01  0.985401D-02 -0.104756D-01 -0.176676D-02  0.186234D-01
     21 -0.101086D-01 -0.105362D-01  0.838340D-02 -0.127865D-02 -0.170619D-02
               21 
     21  0.172134D-01
 Leave Link  716 at Sat Feb 16 13:50:31 2019, MaxMem=   196608000 cpu:         0.6
 (Enter /cm/shared/c3ddb/gaussian/09.d01/g09/l103.exe)

 GradGradGradGradGradGradGradGradGradGradGradGradGradGradGradGradGradGrad
 Berny optimization.
 Red2BG is reusing G-inverse.
 Internal  Forces:  Max     0.000074708 RMS     0.000032728
 Search for a local minimum.
 Step number   1 out of a maximum of   31 on scan point     1 out of    37
 All quantities printed in internal units (Hartrees-Bohrs-Radians)
 RMS Force = .33522D-04 SwitMx=.10000D-02 MixMth= 2
 Mixed Optimization -- En-DIIS/RFO-DIIS
 Second derivative matrix not updated -- analytic derivatives used.
 ITU=  0
     Eigenvalues ---    0.01634   0.04744   0.06235   0.12539   0.14489
     Eigenvalues ---    0.14548   0.17645   0.20111   0.30741   0.33128
     Eigenvalues ---    0.33284   0.36650   0.44454   0.444811000.00000
     Eigenvalues --- 1000.000001000.000001000.000001000.000001000.00000
     Eigenvalues --- 1000.00000
 RFO step:  Lambda=-1.25282238D-07 EMin= 1.63440046D-02
 Linear search not attempted -- first point.
 Iteration  1 RMS(Cart)=  0.00023202 RMS(Int)=  0.00000007
 Iteration  2 RMS(Cart)=  0.00000006 RMS(Int)=  0.00000003
 Iteration  1 RMS(Cart)=  0.00000001 RMS(Int)=  0.00000001
 ITry= 1 IFail=0 DXMaxC= 5.07D-04 DCOld= 1.00D+10 DXMaxT= 3.00D-01 DXLimC= 3.00D+00 Rises=F
 ClnCor:  largest displacement from symmetrization is 1.17D-04 for atom     7.
 Variable       Old X    -DE/DX   Delta X   Delta X   Delta X     New X
                                 (Linear)    (Quad)   (Total)
    R1        2.77074   0.00000   0.00000  -0.00014  -0.00014   2.77060
    R2        1.91825  -0.00003   0.00000  -0.00006  -0.00007   1.91818
    R3        1.91825  -0.00003   0.00000  -0.00006  -0.00007   1.91818
    R4        2.06588  -0.00003   0.00000  -0.00008  -0.00008   2.06579
    R5        2.08198  -0.00005   0.00000  -0.00015  -0.00015   2.08183
    R6        2.06588  -0.00003   0.00000  -0.00008  -0.00008   2.06579
    A1        1.92065   0.00007   0.00000   0.00046   0.00046   1.92111
    A2        1.92065   0.00007   0.00000   0.00046   0.00046   1.92111
    A3        1.85529  -0.00007   0.00000  -0.00051  -0.00047   1.85482
    A4        1.90663   0.00001   0.00000   0.00004   0.00004   1.90667
    A5        2.01678   0.00001   0.00000   0.00013   0.00013   2.01691
    A6        1.90663   0.00001   0.00000   0.00004   0.00004   1.90667
    A7        1.88063  -0.00001   0.00000  -0.00008  -0.00009   1.88053
    A8        1.86680  -0.00001   0.00000  -0.00007  -0.00003   1.86677
    A9        1.88063  -0.00001   0.00000  -0.00008  -0.00009   1.88053
    D1       -1.10389   0.00000   0.00000   0.00000  -0.00001  -1.10390
    D2        1.01943   0.00000   0.00000   0.00001  -0.00001   1.01942
    D3       -3.14043   0.00000   0.00000   0.00003  -0.00001  -3.14044
    D4        3.14043   0.00000   0.00000   0.00008   0.00001   3.14044
    D5       -1.01943   0.00000   0.00000   0.00009   0.00001  -1.01942
    D6        1.10389   0.00000   0.00000   0.00011   0.00001   1.10390
         Item               Value     Threshold  Converged?
 Maximum Force            0.000074     0.000450     YES
 RMS     Force            0.000034     0.000300     YES
 Maximum Displacement     0.000484     0.001800     YES
 RMS     Displacement     0.000230     0.001200     YES
 Predicted change in Energy=-6.229998D-08
 Optimization completed.
    -- Stationary point found.
                           ----------------------------
                           !   Optimized Parameters   !
                           ! (Angstroms and Degrees)  !
 --------------------------                            --------------------------
 ! Name  Definition              Value          Derivative Info.                !
 --------------------------------------------------------------------------------
 ! R1    R(1,2)                  1.4662         -DE/DX =    0.0                 !
 ! R2    R(1,6)                  1.0151         -DE/DX =    0.0                 !
 ! R3    R(1,7)                  1.0151         -DE/DX =    0.0                 !
 ! R4    R(2,3)                  1.0932         -DE/DX =    0.0                 !
 ! R5    R(2,4)                  1.1017         -DE/DX =   -0.0001              !
 ! R6    R(2,5)                  1.0932         -DE/DX =    0.0                 !
 ! A1    A(2,1,6)              110.045          -DE/DX =    0.0001              !
 ! A2    A(2,1,7)              110.045          -DE/DX =    0.0001              !
 ! A3    A(6,1,7)              106.3003         -DE/DX =   -0.0001              !
 ! A4    A(1,2,3)              109.2421         -DE/DX =    0.0                 !
 ! A5    A(1,2,4)              115.553          -DE/DX =    0.0                 !
 ! A6    A(1,2,5)              109.2421         -DE/DX =    0.0                 !
 ! A7    A(3,2,4)              107.752          -DE/DX =    0.0                 !
 ! A8    A(3,2,5)              106.9597         -DE/DX =    0.0                 !
 ! A9    A(4,2,5)              107.752          -DE/DX =    0.0                 !
 ! D1    D(6,1,2,3)            -63.2485         -DE/DX =    0.0                 !
 ! D2    D(6,1,2,4)             58.409          -DE/DX =    0.0                 !
 ! D3    D(6,1,2,5)           -179.9335         -DE/DX =    0.0                 !
 ! D4    D(7,1,2,3)            179.9335         -DE/DX =    0.0                 !
 ! D5    D(7,1,2,4)            -58.409          -DE/DX =    0.0                 !
 ! D6    D(7,1,2,5)             63.2485         -DE/DX =    0.0                 !
 --------------------------------------------------------------------------------
 Lowest energy point so far.  Saving SCF results.
 Iteration  1 RMS(Cart)=  0.01863801 RMS(Int)=  0.02734251
 Iteration  2 RMS(Cart)=  0.00081767 RMS(Int)=  0.02733330
 Iteration  3 RMS(Cart)=  0.00002384 RMS(Int)=  0.02733330
 Iteration  4 RMS(Cart)=  0.00000092 RMS(Int)=  0.02733330
 Iteration  1 RMS(Cart)=  0.00952145 RMS(Int)=  0.01403769
 Iteration  2 RMS(Cart)=  0.00487663 RMS(Int)=  0.01568663
 Iteration  3 RMS(Cart)=  0.00249550 RMS(Int)=  0.01759041
 Iteration  4 RMS(Cart)=  0.00127619 RMS(Int)=  0.01875845
 Iteration  5 RMS(Cart)=  0.00065239 RMS(Int)=  0.01939636
 Iteration  6 RMS(Cart)=  0.00033344 RMS(Int)=  0.01973190
 Iteration  7 RMS(Cart)=  0.00017040 RMS(Int)=  0.01990572
 Iteration  8 RMS(Cart)=  0.00008708 RMS(Int)=  0.01999513
 Iteration  9 RMS(Cart)=  0.00004450 RMS(Int)=  0.02004098
 Iteration 10 RMS(Cart)=  0.00002274 RMS(Int)=  0.02006444
 Iteration 11 RMS(Cart)=  0.00001162 RMS(Int)=  0.02007645
 Iteration 12 RMS(Cart)=  0.00000594 RMS(Int)=  0.02008258
 Iteration 13 RMS(Cart)=  0.00000303 RMS(Int)=  0.02008572
 Iteration 14 RMS(Cart)=  0.00000155 RMS(Int)=  0.02008732
 Iteration 15 RMS(Cart)=  0.00000079 RMS(Int)=  0.02008814
 GradGradGradGradGradGradGradGradGradGradGradGradGradGradGradGradGradGrad

 Leave Link  103 at Sat Feb 16 13:50:36 2019, MaxMem=   196608000 cpu:        32.9
 (Enter /cm/shared/c3ddb/gaussian/09.d01/g09/l202.exe)
                          Input orientation:                          
 ---------------------------------------------------------------------
 Center     Atomic      Atomic             Coordinates (Angstroms)
 Number     Number       Type             X           Y           Z
 ---------------------------------------------------------------------
      1          7           0        0.828997    0.202274   -0.322503
      2          6           0       -0.578514    0.001609    0.035813
      3          1           0       -1.061505   -0.606792   -0.733699
      4          1           0       -0.721933   -0.574974    0.963523
      5          1           0       -1.095172    0.957627    0.154703
      6          1           0        1.296840   -0.680522   -0.503050
      7          1           0        1.331293    0.700793    0.405187
 ---------------------------------------------------------------------
                    Distance matrix (angstroms):
                    1          2          3          4          5
     1  N    0.000000
     2  C    1.466200   0.000000
     3  H    2.097061   1.093425   0.000000
     4  H    2.159481   1.101663   1.731150   0.000000
     5  H    2.121488   1.093180   1.799388   1.772671   0.000000
     6  H    1.015284   2.067034   2.370743   2.497483   2.972860
     7  H    1.015065   2.067041   2.955050   2.480939   2.452843
                    6          7
     6  H    0.000000
     7  H    1.653515   0.000000
 Stoichiometry    CH5N
 Framework group  C1[X(CH5N)]
 Deg. of freedom    15
 Full point group                 C1      NOp   1
 Omega: Change in point group or standard orientation.

 Old FWG=CS   [SG(C1H1N1),X(H4)]
 New FWG=C01  [X(C1H5N1)]
 RotChk:  IX=2 Diff= 2.40D+00
 Largest Abelian subgroup         C1      NOp   1
 Largest concise Abelian subgroup C1      NOp   1
                         Standard orientation:                         
 ---------------------------------------------------------------------
 Center     Atomic      Atomic             Coordinates (Angstroms)
 Number     Number       Type             X           Y           Z
 ---------------------------------------------------------------------
      1          7           0        0.751388   -0.006098    0.113715
      2          6           0       -0.709896   -0.005336   -0.006259
      3          1           0       -1.105158    0.916949    0.428181
      4          1           0       -1.069194    0.012590   -1.047530
      5          1           0       -1.145908   -0.881190    0.481402
      6          1           0        1.157447    0.839196   -0.275382
      7          1           0        1.162474   -0.812841   -0.345121
 ---------------------------------------------------------------------
 Rotational constants (GHZ):    103.7483748     22.7402788     21.6291623
 Leave Link  202 at Sat Feb 16 13:50:36 2019, MaxMem=   196608000 cpu:         0.3
 (Enter /cm/shared/c3ddb/gaussian/09.d01/g09/l301.exe)
 Standard basis: 6-311G(2d,d,p) (5D, 7F)
 Ernie: Thresh=  0.10000D-02 Tol=  0.10000D-05 Strict=F.
 There are    68 symmetry adapted cartesian basis functions of A   symmetry.
 There are    66 symmetry adapted basis functions of A   symmetry.
    66 basis functions,   104 primitive gaussians,    68 cartesian basis functions
     9 alpha electrons        9 beta electrons
       nuclear repulsion energy        41.8859526915 Hartrees.
 IExCor=  402 DFT=T Ex+Corr=B3LYP ExCW=0 ScaHFX=  0.200000
 ScaDFX=  0.800000  0.720000  1.000000  0.810000 ScalE2=  1.000000  1.000000
 IRadAn=      0 IRanWt=     -1 IRanGd=            0 ICorTp=0 IEmpDi=  4
 NAtoms=    7 NActive=    7 NUniq=    7 SFac= 1.00D+00 NAtFMM=   60 NAOKFM=F Big=F
 Integral buffers will be    131072 words long.
 Raffenetti 2 integral format.
 Two-electron integral symmetry is turned on.
 Leave Link  301 at Sat Feb 16 13:50:36 2019, MaxMem=   196608000 cpu:         0.3
 (Enter /cm/shared/c3ddb/gaussian/09.d01/g09/l302.exe)
 NPDir=0 NMtPBC=     1 NCelOv=     1 NCel=       1 NClECP=     1 NCelD=      1
         NCelK=      1 NCelE2=     1 NClLst=     1 CellRange=     0.0.
 One-electron integrals computed using PRISM.
 NBasis=    66 RedAO= T EigKep=  5.80D-03  NBF=    66
 NBsUse=    66 1.00D-06 EigRej= -1.00D+00 NBFU=    66
 Precomputing XC quadrature grid using
 IXCGrd= 4 IRadAn=           0 IRanWt=          -1 IRanGd=           0 AccXCQ= 0.00D+00.
 Generated NRdTot=       0 NPtTot=           0 NUsed=           0 NTot=          32
 NSgBfM=    68    68    68    68    68 MxSgAt=     7 MxSgA2=     7.
 Leave Link  302 at Sat Feb 16 13:50:37 2019, MaxMem=   196608000 cpu:         3.9
 (Enter /cm/shared/c3ddb/gaussian/09.d01/g09/l303.exe)
 DipDrv:  MaxL=1.
 Leave Link  303 at Sat Feb 16 13:50:37 2019, MaxMem=   196608000 cpu:         1.0
 (Enter /cm/shared/c3ddb/gaussian/09.d01/g09/l401.exe)
 Initial guess from the checkpoint file:  "check.chk"
 B after Tr=     0.000000    0.000000    0.000000
         Rot=    0.526586    0.522566   -0.474224   -0.474071 Ang= 116.45 deg.
 Guess basis will be translated and rotated to current coordinates.
 JPrj=2 DoOrth=T DoCkMO=T.
 Generating alternative initial guess.
 ExpMin= 1.03D-01 ExpMax= 6.29D+03 ExpMxC= 9.49D+02 IAcc=1 IRadAn=         1 AccDes= 0.00D+00
 Harris functional with IExCor=  402 and IRadAn=       1 diagonalized for initial guess.
 HarFok:  IExCor=  402 AccDes= 0.00D+00 IRadAn=         1 IDoV= 1 UseB2=F ITyADJ=14
 ICtDFT=  3500011 ScaDFX=  1.000000  1.000000  1.000000  1.000000
 FoFCou: FMM=F IPFlag=           0 FMFlag=      100000 FMFlg1=           0
         NFxFlg=           0 DoJE=T BraDBF=F KetDBF=T FulRan=T
         wScrn=  0.000000 ICntrl=     500 IOpCl=  0 I1Cent=   200000004 NGrid=           0
         NMat0=    1 NMatS0=      1 NMatT0=    0 NMatD0=    1 NMtDS0=    0 NMtDT0=    0
 Petite list used in FoFCou.
 Harris En= -95.9219682154625    
 Leave Link  401 at Sat Feb 16 13:50:39 2019, MaxMem=   196608000 cpu:         8.6
 (Enter /cm/shared/c3ddb/gaussian/09.d01/g09/l502.exe)
 Closed shell SCF:
 Using DIIS extrapolation, IDIIS=  1040.
 Integral symmetry usage will be decided dynamically.
 Keep R1 ints in memory in canonical form, NReq=3356022.
 IVT=       20876 IEndB=       20876 NGot=   196608000 MDV=   194141759
 LenX=   194141759 LenY=   194136694
 Requested convergence on RMS density matrix=1.00D-08 within  64 cycles.
 Requested convergence on MAX density matrix=1.00D-06.
 Requested convergence on             energy=1.00D-06.
 No special actions if energy rises.
 FoFCou: FMM=F IPFlag=           0 FMFlag=           0 FMFlg1=           0
         NFxFlg=           0 DoJE=F BraDBF=F KetDBF=F FulRan=T
         wScrn=  0.000000 ICntrl=     600 IOpCl=  0 I1Cent=           0 NGrid=           0
         NMat0=    1 NMatS0=   2211 NMatT0=    0 NMatD0=    1 NMtDS0=    0 NMtDT0=    0
 Symmetry not used in FoFCou.
 Integral accuracy reduced to 1.0D-05 until final iterations.

 Cycle   1  Pass 0  IDiag  1:
 E= -95.8863182347780    
 DIIS: error= 2.59D-03 at cycle   1 NSaved=   1.
 NSaved= 1 IEnMin= 1 EnMin= -95.8863182347780     IErMin= 1 ErrMin= 2.59D-03
 ErrMax= 2.59D-03  0.00D+00 EMaxC= 1.00D-01 BMatC= 7.99D-04 BMatP= 7.99D-04
 IDIUse=3 WtCom= 9.74D-01 WtEn= 2.59D-02
 Coeff-Com:  0.100D+01
 Coeff-En:   0.100D+01
 Coeff:      0.100D+01
 Gap=     0.540 Goal=   None    Shift=    0.000
 GapD=    0.540 DampG=2.000 DampE=1.000 DampFc=2.0000 IDamp=-1.
 RMSDP=5.17D-04 MaxDP=7.35D-03              OVMax= 1.49D-02

 Cycle   2  Pass 0  IDiag  1:
 E= -95.8873387690848     Delta-E=       -0.001020534307 Rises=F Damp=F
 DIIS: error= 2.99D-04 at cycle   2 NSaved=   2.
 NSaved= 2 IEnMin= 2 EnMin= -95.8873387690848     IErMin= 2 ErrMin= 2.99D-04
 ErrMax= 2.99D-04  0.00D+00 EMaxC= 1.00D-01 BMatC= 8.58D-06 BMatP= 7.99D-04
 IDIUse=3 WtCom= 9.97D-01 WtEn= 2.99D-03
 Coeff-Com: -0.426D-01 0.104D+01
 Coeff-En:   0.000D+00 0.100D+01
 Coeff:     -0.425D-01 0.104D+01
 Gap=     0.270 Goal=   None    Shift=    0.000
 RMSDP=6.82D-05 MaxDP=1.14D-03 DE=-1.02D-03 OVMax= 1.79D-03

 Cycle   3  Pass 0  IDiag  1:
 E= -95.8873458853229     Delta-E=       -0.000007116238 Rises=F Damp=F
 DIIS: error= 3.67D-04 at cycle   3 NSaved=   3.
 NSaved= 3 IEnMin= 3 EnMin= -95.8873458853229     IErMin= 2 ErrMin= 2.99D-04
 ErrMax= 3.67D-04  0.00D+00 EMaxC= 1.00D-01 BMatC= 5.78D-06 BMatP= 8.58D-06
 IDIUse=3 WtCom= 9.96D-01 WtEn= 3.67D-03
 Coeff-Com: -0.262D-01 0.491D+00 0.535D+00
 Coeff-En:   0.000D+00 0.000D+00 0.100D+01
 Coeff:     -0.261D-01 0.489D+00 0.537D+00
 Gap=     0.270 Goal=   None    Shift=    0.000
 RMSDP=2.54D-05 MaxDP=5.02D-04 DE=-7.12D-06 OVMax= 6.99D-04

 Cycle   4  Pass 0  IDiag  1:
 E= -95.8873501467600     Delta-E=       -0.000004261437 Rises=F Damp=F
 DIIS: error= 1.14D-04 at cycle   4 NSaved=   4.
 NSaved= 4 IEnMin= 4 EnMin= -95.8873501467600     IErMin= 4 ErrMin= 1.14D-04
 ErrMax= 1.14D-04  0.00D+00 EMaxC= 1.00D-01 BMatC= 4.92D-07 BMatP= 5.78D-06
 IDIUse=3 WtCom= 9.99D-01 WtEn= 1.14D-03
 Coeff-Com: -0.638D-02 0.925D-01 0.250D+00 0.664D+00
 Coeff-En:   0.000D+00 0.000D+00 0.000D+00 0.100D+01
 Coeff:     -0.637D-02 0.924D-01 0.249D+00 0.664D+00
 Gap=     0.270 Goal=   None    Shift=    0.000
 RMSDP=7.92D-06 MaxDP=1.41D-04 DE=-4.26D-06 OVMax= 1.90D-04

 Initial convergence to 1.0D-05 achieved.  Increase integral accuracy.
 Cycle   5  Pass 1  IDiag  1:
 E= -95.8873529426127     Delta-E=       -0.000002795853 Rises=F Damp=F
 DIIS: error= 1.44D-05 at cycle   1 NSaved=   1.
 NSaved= 1 IEnMin= 1 EnMin= -95.8873529426127     IErMin= 1 ErrMin= 1.44D-05
 ErrMax= 1.44D-05  0.00D+00 EMaxC= 1.00D-01 BMatC= 1.29D-08 BMatP= 1.29D-08
 IDIUse=1 WtCom= 1.00D+00 WtEn= 0.00D+00
 Coeff-Com:  0.100D+01
 Coeff:      0.100D+01
 Gap=     0.270 Goal=   None    Shift=    0.000
 RMSDP=7.92D-06 MaxDP=1.41D-04 DE=-2.80D-06 OVMax= 7.09D-05

 Cycle   6  Pass 1  IDiag  1:
 E= -95.8873529465463     Delta-E=       -0.000000003934 Rises=F Damp=F
 DIIS: error= 1.31D-05 at cycle   2 NSaved=   2.
 NSaved= 2 IEnMin= 2 EnMin= -95.8873529465463     IErMin= 2 ErrMin= 1.31D-05
 ErrMax= 1.31D-05  0.00D+00 EMaxC= 1.00D-01 BMatC= 1.07D-08 BMatP= 1.29D-08
 IDIUse=1 WtCom= 1.00D+00 WtEn= 0.00D+00
 Coeff-Com:  0.475D+00 0.525D+00
 Coeff:      0.475D+00 0.525D+00
 Gap=     0.270 Goal=   None    Shift=    0.000
 RMSDP=1.22D-06 MaxDP=2.11D-05 DE=-3.93D-09 OVMax= 3.05D-05

 Cycle   7  Pass 1  IDiag  1:
 E= -95.8873529554893     Delta-E=       -0.000000008943 Rises=F Damp=F
 DIIS: error= 3.29D-06 at cycle   3 NSaved=   3.
 NSaved= 3 IEnMin= 3 EnMin= -95.8873529554893     IErMin= 3 ErrMin= 3.29D-06
 ErrMax= 3.29D-06  0.00D+00 EMaxC= 1.00D-01 BMatC= 7.10D-10 BMatP= 1.07D-08
 IDIUse=1 WtCom= 1.00D+00 WtEn= 0.00D+00
 Coeff-Com:  0.148D+00 0.250D+00 0.601D+00
 Coeff:      0.148D+00 0.250D+00 0.601D+00
 Gap=     0.270 Goal=   None    Shift=    0.000
 RMSDP=3.05D-07 MaxDP=5.16D-06 DE=-8.94D-09 OVMax= 8.10D-06

 Cycle   8  Pass 1  IDiag  1:
 E= -95.8873529560650     Delta-E=       -0.000000000576 Rises=F Damp=F
 DIIS: error= 6.48D-07 at cycle   4 NSaved=   4.
 NSaved= 4 IEnMin= 4 EnMin= -95.8873529560650     IErMin= 4 ErrMin= 6.48D-07
 ErrMax= 6.48D-07  0.00D+00 EMaxC= 1.00D-01 BMatC= 2.11D-11 BMatP= 7.10D-10
 IDIUse=1 WtCom= 1.00D+00 WtEn= 0.00D+00
 Coeff-Com: -0.273D-02 0.223D-01 0.170D+00 0.811D+00
 Coeff:     -0.273D-02 0.223D-01 0.170D+00 0.811D+00
 Gap=     0.270 Goal=   None    Shift=    0.000
 RMSDP=6.88D-08 MaxDP=9.28D-07 DE=-5.76D-10 OVMax= 1.84D-06

 Cycle   9  Pass 1  IDiag  1:
 E= -95.8873529560811     Delta-E=       -0.000000000016 Rises=F Damp=F
 DIIS: error= 2.49D-07 at cycle   5 NSaved=   5.
 NSaved= 5 IEnMin= 5 EnMin= -95.8873529560811     IErMin= 5 ErrMin= 2.49D-07
 ErrMax= 2.49D-07  0.00D+00 EMaxC= 1.00D-01 BMatC= 3.92D-12 BMatP= 2.11D-11
 IDIUse=1 WtCom= 1.00D+00 WtEn= 0.00D+00
 Coeff-Com: -0.108D-01-0.288D-02 0.572D-01 0.423D+00 0.533D+00
 Coeff:     -0.108D-01-0.288D-02 0.572D-01 0.423D+00 0.533D+00
 Gap=     0.270 Goal=   None    Shift=    0.000
 RMSDP=1.94D-08 MaxDP=4.68D-07 DE=-1.61D-11 OVMax= 5.90D-07

 Cycle  10  Pass 1  IDiag  1:
 E= -95.8873529560850     Delta-E=       -0.000000000004 Rises=F Damp=F
 DIIS: error= 2.41D-08 at cycle   6 NSaved=   6.
 NSaved= 6 IEnMin= 6 EnMin= -95.8873529560850     IErMin= 6 ErrMin= 2.41D-08
 ErrMax= 2.41D-08  0.00D+00 EMaxC= 1.00D-01 BMatC= 4.22D-14 BMatP= 3.92D-12
 IDIUse=1 WtCom= 1.00D+00 WtEn= 0.00D+00
 Coeff-Com: -0.218D-02-0.182D-02 0.286D-02 0.375D-01 0.111D+00 0.853D+00
 Coeff:     -0.218D-02-0.182D-02 0.286D-02 0.375D-01 0.111D+00 0.853D+00
 Gap=     0.270 Goal=   None    Shift=    0.000
 RMSDP=4.35D-09 MaxDP=6.55D-08 DE=-3.87D-12 OVMax= 1.26D-07

 SCF Done:  E(RB3LYP) =  -95.8873529561     A.U. after   10 cycles
            NFock= 10  Conv=0.44D-08     -V/T= 2.0043
 KE= 9.547633127206D+01 PE=-3.069163394976D+02 EE= 7.366670257797D+01
 Leave Link  502 at Sat Feb 16 13:50:44 2019, MaxMem=   196608000 cpu:        31.0
 (Enter /cm/shared/c3ddb/gaussian/09.d01/g09/l508.exe)
 QCSCF skips out because SCF is already converged.
 Leave Link  508 at Sat Feb 16 13:50:44 2019, MaxMem=   196608000 cpu:         0.0
 (Enter /cm/shared/c3ddb/gaussian/09.d01/g09/l701.exe)
 Compute integral first derivatives.
 ... and contract with generalized density number  0.
 Leave Link  701 at Sat Feb 16 13:50:45 2019, MaxMem=   196608000 cpu:         3.3
 (Enter /cm/shared/c3ddb/gaussian/09.d01/g09/l702.exe)
 L702 exits ... SP integral derivatives will be done elsewhere.
 Leave Link  702 at Sat Feb 16 13:50:45 2019, MaxMem=   196608000 cpu:         0.2
 (Enter /cm/shared/c3ddb/gaussian/09.d01/g09/l703.exe)
 Compute integral first derivatives, UseDBF=F ICtDFT=           0.
 Integral derivatives from FoFJK, PRISM(SPDF).
 Calling FoFJK, ICntrl=      2127 FMM=F ISym2X=0 I1Cent= 0 IOpClX= 0 NMat=1 NMatS=1 NMatT=0.
 FoFJK:  IHMeth= 1 ICntrl=    2127 DoSepK=F KAlg= 0 I1Cent=   0 FoldK=F
 IRaf=         0 NMat=   1 IRICut=       1 DoRegI=T DoRafI=F ISym2E= 0.
 FoFCou: FMM=F IPFlag=           0 FMFlag=      100000 FMFlg1=         800
         NFxFlg=           0 DoJE=F BraDBF=F KetDBF=F FulRan=T
         wScrn=  0.000000 ICntrl=    2127 IOpCl=  0 I1Cent=           0 NGrid=           0
         NMat0=    1 NMatS0=      1 NMatT0=    0 NMatD0=    1 NMtDS0=    0 NMtDT0=    0
 Symmetry not used in FoFCou.
 Leave Link  703 at Sat Feb 16 13:50:46 2019, MaxMem=   196608000 cpu:         5.3
 (Enter /cm/shared/c3ddb/gaussian/09.d01/g09/l716.exe)
 Dipole        =-6.05899488D-02 2.93100600D-02-5.05191106D-01
 ***** Axes restored to original set *****
 -------------------------------------------------------------------
 Center     Atomic                   Forces (Hartrees/Bohr)
 Number     Number              X              Y              Z
 -------------------------------------------------------------------
      1        7          -0.002433289    0.005626473   -0.005317628
      2        6           0.006051517   -0.011942719    0.006398417
      3        1          -0.001761767    0.006350393   -0.003669920
      4        1          -0.001125637    0.002323363    0.003405736
      5        1           0.000516186   -0.000868588   -0.003890972
      6        1          -0.000863876    0.001965703    0.003473630
      7        1          -0.000383133   -0.003454624   -0.000399263
 -------------------------------------------------------------------
 Cartesian Forces:  Max     0.011942719 RMS     0.004398515
 Leave Link  716 at Sat Feb 16 13:50:46 2019, MaxMem=   196608000 cpu:         0.2
 (Enter /cm/shared/c3ddb/gaussian/09.d01/g09/l103.exe)

 GradGradGradGradGradGradGradGradGradGradGradGradGradGradGradGradGradGrad
 Berny optimization.
 FormGI is forming the generalized inverse of G from B-inverse, IUseBI=4.
 Internal  Forces:  Max     0.005969202 RMS     0.002676529
 Search for a local minimum.
 Step number   1 out of a maximum of   31 on scan point     2 out of    37
 All quantities printed in internal units (Hartrees-Bohrs-Radians)
 RMS Force = .19695D-02 SwitMx=.10000D-02 MixMth= 1
 Mixed Optimization -- RFO/linear search
 Second derivative matrix not updated -- first step.
 ITU=  0
     Eigenvalues ---    0.01607   0.04771   0.06230   0.12530   0.14486
     Eigenvalues ---    0.14508   0.17596   0.20114   0.30730   0.33129
     Eigenvalues ---    0.33280   0.36625   0.44451   0.444811000.00000
     Eigenvalues --- 1000.000001000.000001000.000001000.000001000.00000
     Eigenvalues --- 1000.00000
 RFO step:  Lambda=-1.61940155D-03 EMin= 1.60652356D-02
 Linear search not attempted -- first point.
 Iteration  1 RMS(Cart)=  0.04047549 RMS(Int)=  0.00156734
 Iteration  2 RMS(Cart)=  0.00152606 RMS(Int)=  0.00047540
 Iteration  3 RMS(Cart)=  0.00000266 RMS(Int)=  0.00047539
 Iteration  4 RMS(Cart)=  0.00000000 RMS(Int)=  0.00047539
 Iteration  1 RMS(Cart)=  0.00001592 RMS(Int)=  0.00002362
 Iteration  2 RMS(Cart)=  0.00000818 RMS(Int)=  0.00002641
 Iteration  3 RMS(Cart)=  0.00000420 RMS(Int)=  0.00002962
 Iteration  4 RMS(Cart)=  0.00000216 RMS(Int)=  0.00003160
 Iteration  5 RMS(Cart)=  0.00000111 RMS(Int)=  0.00003268
 Iteration  6 RMS(Cart)=  0.00000057 RMS(Int)=  0.00003326
 ITry= 1 IFail=0 DXMaxC= 8.07D-02 DCOld= 1.00D+10 DXMaxT= 3.00D-01 DXLimC= 3.00D+00 Rises=F
 Variable       Old X    -DE/DX   Delta X   Delta X   Delta X     New X
                                 (Linear)    (Quad)   (Total)
    R1        2.77072  -0.00242   0.00000  -0.00331  -0.00331   2.76741
    R2        1.91861  -0.00272   0.00000  -0.00251  -0.00251   1.91610
    R3        1.91819  -0.00217   0.00000  -0.00193  -0.00193   1.91627
    R4        2.06627  -0.00017   0.00000  -0.00088  -0.00088   2.06540
    R5        2.08184   0.00180   0.00000   0.00138   0.00138   2.08322
    R6        2.06581  -0.00143   0.00000   0.00048   0.00048   2.06629
    A1        1.94638  -0.00147   0.00000  -0.01502  -0.01535   1.93103
    A2        1.94663  -0.00050   0.00000  -0.01056  -0.01089   1.93574
    A3        1.90339  -0.00112   0.00000  -0.02813  -0.02878   1.87461
    A4        1.90520  -0.00001   0.00000   0.00081  -0.00022   1.90498
    A5        1.98493   0.00372   0.00000   0.02980   0.02938   2.01431
    A6        1.93970  -0.00360   0.00000  -0.02560  -0.02598   1.91372
    A7        1.81720   0.00359   0.00000   0.05362   0.05267   1.86987
    A8        1.93304  -0.00344   0.00000  -0.05515  -0.05613   1.87691
    A9        1.88031   0.00002   0.00000  -0.00136  -0.00120   1.87911
    D1       -0.92937  -0.00597   0.00000   0.00000   0.00001  -0.92936
    D2        1.09124   0.00073   0.00000   0.08513   0.08568   1.17691
    D3       -3.06649   0.00073   0.00000   0.08565   0.08531  -2.98119
    D4       -3.06216  -0.00312   0.00000   0.05459   0.05435  -3.00781
    D5       -1.04156   0.00357   0.00000   0.13972   0.14002  -0.90154
    D6        1.08390   0.00358   0.00000   0.14024   0.13966   1.22355
         Item               Value     Threshold  Converged?
 Maximum Force            0.003241     0.000450     NO 
 RMS     Force            0.001969     0.000300     NO 
 Maximum Displacement     0.080665     0.001800     NO 
 RMS     Displacement     0.040367     0.001200     NO 
 Predicted change in Energy=-8.620056D-04
 Lowest energy point so far.  Saving SCF results.
 GradGradGradGradGradGradGradGradGradGradGradGradGradGradGradGradGradGrad

 Leave Link  103 at Sat Feb 16 13:50:50 2019, MaxMem=   196608000 cpu:        29.6
 (Enter /cm/shared/c3ddb/gaussian/09.d01/g09/l202.exe)
                          Input orientation:                          
 ---------------------------------------------------------------------
 Center     Atomic      Atomic             Coordinates (Angstroms)
 Number     Number       Type             X           Y           Z
 ---------------------------------------------------------------------
      1          7           0        0.825215    0.221310   -0.325509
      2          6           0       -0.571207   -0.013896    0.047717
      3          1           0       -1.056374   -0.604813   -0.733305
      4          1           0       -0.722805   -0.547675    1.000275
      5          1           0       -1.099711    0.940980    0.114691
      6          1           0        1.290467   -0.653997   -0.538784
      7          1           0        1.334421    0.658107    0.434889
 ---------------------------------------------------------------------
                    Distance matrix (angstroms):
                    1          2          3          4          5
     1  N    0.000000
     2  C    1.464450   0.000000
     3  H    2.095031   1.092962   0.000000
     4  H    2.178396   1.102392   1.766305   0.000000
     5  H    2.101676   1.093431   1.763648   1.772685   0.000000
     6  H    1.013956   2.054152   2.355402   2.536389   2.946851
     7  H    1.014045   2.057403   2.945428   2.450663   2.471345
                    6          7
     6  H    0.000000
     7  H    1.634499   0.000000
 Stoichiometry    CH5N
 Framework group  C1[X(CH5N)]
 Deg. of freedom    15
 Full point group                 C1      NOp   1
 RotChk:  IX=2 Diff= 1.34D-01
 Largest Abelian subgroup         C1      NOp   1
 Largest concise Abelian subgroup C1      NOp   1
                         Standard orientation:                         
 ---------------------------------------------------------------------
 Center     Atomic      Atomic             Coordinates (Angstroms)
 Number     Number       Type             X           Y           Z
 ---------------------------------------------------------------------
      1          7           0        0.751130   -0.001840    0.118975
      2          6           0       -0.707125   -0.001389   -0.015576
      3          1           0       -1.101066    0.948245    0.355330
      4          1           0       -1.087526   -0.132136   -1.041962
      5          1           0       -1.133415   -0.798011    0.600267
      6          1           0        1.151030    0.818792   -0.322330
      7          1           0        1.155817   -0.815678   -0.330673
 ---------------------------------------------------------------------
 Rotational constants (GHZ):    103.7500576     22.7225380     21.7892839
 Leave Link  202 at Sat Feb 16 13:50:50 2019, MaxMem=   196608000 cpu:         0.3
 (Enter /cm/shared/c3ddb/gaussian/09.d01/g09/l301.exe)
 Standard basis: 6-311G(2d,d,p) (5D, 7F)
 Ernie: Thresh=  0.10000D-02 Tol=  0.10000D-05 Strict=F.
 There are    68 symmetry adapted cartesian basis functions of A   symmetry.
 There are    66 symmetry adapted basis functions of A   symmetry.
    66 basis functions,   104 primitive gaussians,    68 cartesian basis functions
     9 alpha electrons        9 beta electrons
       nuclear repulsion energy        41.9362603188 Hartrees.
 IExCor=  402 DFT=T Ex+Corr=B3LYP ExCW=0 ScaHFX=  0.200000
 ScaDFX=  0.800000  0.720000  1.000000  0.810000 ScalE2=  1.000000  1.000000
 IRadAn=      0 IRanWt=     -1 IRanGd=            0 ICorTp=0 IEmpDi=  4
 NAtoms=    7 NActive=    7 NUniq=    7 SFac= 1.00D+00 NAtFMM=   60 NAOKFM=F Big=F
 Integral buffers will be    131072 words long.
 Raffenetti 2 integral format.
 Two-electron integral symmetry is turned on.
 Leave Link  301 at Sat Feb 16 13:50:50 2019, MaxMem=   196608000 cpu:         0.4
 (Enter /cm/shared/c3ddb/gaussian/09.d01/g09/l302.exe)
 NPDir=0 NMtPBC=     1 NCelOv=     1 NCel=       1 NClECP=     1 NCelD=      1
         NCelK=      1 NCelE2=     1 NClLst=     1 CellRange=     0.0.
 One-electron integrals computed using PRISM.
 NBasis=    66 RedAO= T EigKep=  5.68D-03  NBF=    66
 NBsUse=    66 1.00D-06 EigRej= -1.00D+00 NBFU=    66
 Precomputing XC quadrature grid using
 IXCGrd= 4 IRadAn=           0 IRanWt=          -1 IRanGd=           0 AccXCQ= 0.00D+00.
 Generated NRdTot=       0 NPtTot=           0 NUsed=           0 NTot=          32
 NSgBfM=    68    68    68    68    68 MxSgAt=     7 MxSgA2=     7.
 Leave Link  302 at Sat Feb 16 13:50:51 2019, MaxMem=   196608000 cpu:         4.4
 (Enter /cm/shared/c3ddb/gaussian/09.d01/g09/l303.exe)
 DipDrv:  MaxL=1.
 Leave Link  303 at Sat Feb 16 13:50:51 2019, MaxMem=   196608000 cpu:         1.0
 (Enter /cm/shared/c3ddb/gaussian/09.d01/g09/l401.exe)
 Initial guess from the checkpoint file:  "check.chk"
 B after Tr=     0.000000    0.000000    0.000000
         Rot=    0.998945    0.045880   -0.002068   -0.000341 Ang=   5.26 deg.
 Guess basis will be translated and rotated to current coordinates.
 JPrj=2 DoOrth=T DoCkMO=T.
 Generating alternative initial guess.
 ExpMin= 1.03D-01 ExpMax= 6.29D+03 ExpMxC= 9.49D+02 IAcc=1 IRadAn=         1 AccDes= 0.00D+00
 Harris functional with IExCor=  402 and IRadAn=       1 diagonalized for initial guess.
 HarFok:  IExCor=  402 AccDes= 0.00D+00 IRadAn=         1 IDoV= 1 UseB2=F ITyADJ=14
 ICtDFT=  3500011 ScaDFX=  1.000000  1.000000  1.000000  1.000000
 FoFCou: FMM=F IPFlag=           0 FMFlag=      100000 FMFlg1=           0
         NFxFlg=           0 DoJE=T BraDBF=F KetDBF=T FulRan=T
         wScrn=  0.000000 ICntrl=     500 IOpCl=  0 I1Cent=   200000004 NGrid=           0
         NMat0=    1 NMatS0=      1 NMatT0=    0 NMatD0=    1 NMtDS0=    0 NMtDT0=    0
 Petite list used in FoFCou.
 Harris En= -95.9226810704386    
 Leave Link  401 at Sat Feb 16 13:50:53 2019, MaxMem=   196608000 cpu:         9.5
 (Enter /cm/shared/c3ddb/gaussian/09.d01/g09/l502.exe)
 Closed shell SCF:
 Using DIIS extrapolation, IDIIS=  1040.
 Integral symmetry usage will be decided dynamically.
 Keep R1 ints in memory in canonical form, NReq=3356022.
 IVT=       20876 IEndB=       20876 NGot=   196608000 MDV=   194141759
 LenX=   194141759 LenY=   194136694
 Requested convergence on RMS density matrix=1.00D-08 within  64 cycles.
 Requested convergence on MAX density matrix=1.00D-06.
 Requested convergence on             energy=1.00D-06.
 No special actions if energy rises.
 FoFCou: FMM=F IPFlag=           0 FMFlag=           0 FMFlg1=           0
         NFxFlg=           0 DoJE=F BraDBF=F KetDBF=F FulRan=T
         wScrn=  0.000000 ICntrl=     600 IOpCl=  0 I1Cent=           0 NGrid=           0
         NMat0=    1 NMatS0=   2211 NMatT0=    0 NMatD0=    1 NMtDS0=    0 NMtDT0=    0
 Symmetry not used in FoFCou.
 Integral accuracy reduced to 1.0D-05 until final iterations.

 Cycle   1  Pass 0  IDiag  1:
 E= -95.8872052388892    
 DIIS: error= 2.83D-03 at cycle   1 NSaved=   1.
 NSaved= 1 IEnMin= 1 EnMin= -95.8872052388892     IErMin= 1 ErrMin= 2.83D-03
 ErrMax= 2.83D-03  0.00D+00 EMaxC= 1.00D-01 BMatC= 7.41D-04 BMatP= 7.41D-04
 IDIUse=3 WtCom= 9.72D-01 WtEn= 2.83D-02
 Coeff-Com:  0.100D+01
 Coeff-En:   0.100D+01
 Coeff:      0.100D+01
 Gap=     0.544 Goal=   None    Shift=    0.000
 GapD=    0.544 DampG=2.000 DampE=1.000 DampFc=2.0000 IDamp=-1.
 RMSDP=4.88D-04 MaxDP=7.26D-03              OVMax= 1.57D-02

 Cycle   2  Pass 0  IDiag  1:
 E= -95.8882048838751     Delta-E=       -0.000999644986 Rises=F Damp=F
 DIIS: error= 3.31D-04 at cycle   2 NSaved=   2.
 NSaved= 2 IEnMin= 2 EnMin= -95.8882048838751     IErMin= 2 ErrMin= 3.31D-04
 ErrMax= 3.31D-04  0.00D+00 EMaxC= 1.00D-01 BMatC= 8.14D-06 BMatP= 7.41D-04
 IDIUse=3 WtCom= 9.97D-01 WtEn= 3.31D-03
 Coeff-Com: -0.470D-01 0.105D+01
 Coeff-En:   0.000D+00 0.100D+01
 Coeff:     -0.468D-01 0.105D+01
 Gap=     0.275 Goal=   None    Shift=    0.000
 RMSDP=6.36D-05 MaxDP=6.46D-04 DE=-1.00D-03 OVMax= 1.65D-03

 Cycle   3  Pass 0  IDiag  1:
 E= -95.8882141163962     Delta-E=       -0.000009232521 Rises=F Damp=F
 DIIS: error= 2.20D-04 at cycle   3 NSaved=   3.
 NSaved= 3 IEnMin= 3 EnMin= -95.8882141163962     IErMin= 3 ErrMin= 2.20D-04
 ErrMax= 2.20D-04  0.00D+00 EMaxC= 1.00D-01 BMatC= 2.77D-06 BMatP= 8.14D-06
 IDIUse=3 WtCom= 9.98D-01 WtEn= 2.20D-03
 Coeff-Com: -0.228D-01 0.397D+00 0.626D+00
 Coeff-En:   0.000D+00 0.000D+00 0.100D+01
 Coeff:     -0.228D-01 0.396D+00 0.627D+00
 Gap=     0.274 Goal=   None    Shift=    0.000
 RMSDP=2.18D-05 MaxDP=3.26D-04 DE=-9.23D-06 OVMax= 5.73D-04

 Cycle   4  Pass 0  IDiag  1:
 E= -95.8882161931473     Delta-E=       -0.000002076751 Rises=F Damp=F
 DIIS: error= 1.09D-04 at cycle   4 NSaved=   4.
 NSaved= 4 IEnMin= 4 EnMin= -95.8882161931473     IErMin= 4 ErrMin= 1.09D-04
 ErrMax= 1.09D-04  0.00D+00 EMaxC= 1.00D-01 BMatC= 4.70D-07 BMatP= 2.77D-06
 IDIUse=3 WtCom= 9.99D-01 WtEn= 1.09D-03
 Coeff-Com: -0.690D-02 0.102D+00 0.321D+00 0.584D+00
 Coeff-En:   0.000D+00 0.000D+00 0.380D-01 0.962D+00
 Coeff:     -0.689D-02 0.101D+00 0.321D+00 0.585D+00
 Gap=     0.274 Goal=   None    Shift=    0.000
 RMSDP=6.85D-06 MaxDP=1.33D-04 DE=-2.08D-06 OVMax= 1.84D-04

 Initial convergence to 1.0D-05 achieved.  Increase integral accuracy.
 Cycle   5  Pass 1  IDiag  1:
 E= -95.8882243055240     Delta-E=       -0.000008112377 Rises=F Damp=F
 DIIS: error= 1.89D-05 at cycle   1 NSaved=   1.
 NSaved= 1 IEnMin= 1 EnMin= -95.8882243055240     IErMin= 1 ErrMin= 1.89D-05
 ErrMax= 1.89D-05  0.00D+00 EMaxC= 1.00D-01 BMatC= 2.28D-08 BMatP= 2.28D-08
 IDIUse=1 WtCom= 1.00D+00 WtEn= 0.00D+00
 Coeff-Com:  0.100D+01
 Coeff:      0.100D+01
 Gap=     0.274 Goal=   None    Shift=    0.000
 RMSDP=6.85D-06 MaxDP=1.33D-04 DE=-8.11D-06 OVMax= 8.94D-05

 Cycle   6  Pass 1  IDiag  1:
 E= -95.8882243039545     Delta-E=        0.000000001570 Rises=F Damp=F
 DIIS: error= 2.47D-05 at cycle   2 NSaved=   2.
 NSaved= 2 IEnMin= 1 EnMin= -95.8882243055240     IErMin= 1 ErrMin= 1.89D-05
 ErrMax= 2.47D-05  0.00D+00 EMaxC= 1.00D-01 BMatC= 2.88D-08 BMatP= 2.28D-08
 IDIUse=1 WtCom= 1.00D+00 WtEn= 0.00D+00
 Coeff-Com:  0.532D+00 0.468D+00
 Coeff:      0.532D+00 0.468D+00
 Gap=     0.274 Goal=   None    Shift=    0.000
 RMSDP=1.66D-06 MaxDP=3.26D-05 DE= 1.57D-09 OVMax= 4.48D-05

 Cycle   7  Pass 1  IDiag  1:
 E= -95.8882243268470     Delta-E=       -0.000000022893 Rises=F Damp=F
[...]
           R3           1.01154   1.01190   1.01279   1.01393   1.01489
           R4           1.09329   1.09441   1.09589   1.09752   1.09903
           R5           1.09715   1.09515   1.09343   1.09236   1.09193
           R6           1.09516   1.09541   1.09548   1.09534   1.09504
           A1         111.15120 110.95125 110.60830 110.28432 110.06218
           A2         111.56200 111.02172 110.34503 109.75767 109.42812
           A3         107.62919 106.88357 105.99058 105.30196 105.02806
           A4         110.75540 111.84240 112.94263 113.90636 114.63229
           A5         113.18129 112.29619 111.40652 110.61035 109.97224
           A6         111.00364 110.85191 110.53196 110.14756 109.80137
           A7         106.49060 106.87371 107.45909 107.99454 108.30910
           A8         107.60979 107.36739 107.05656 106.85055 106.83823
           A9         107.52671 107.33796 107.16489 107.03468 106.97331
           D1         -13.24835  -3.24855   6.75153  16.75157  26.75154
           D2         106.25675 116.90659 127.80780 138.60376 149.05080
           D3        -132.72424-123.03704-113.15911-103.27342 -93.49911
           D4        -133.38424-121.95395-110.20618 -98.82454 -88.17890
           D5         -13.87913  -1.79881  10.85009  23.02765  34.12035
           D6         107.13987 118.25757 129.88319 141.15047 151.57044
                          11        12        13        14        15
     Eigenvalues --   -95.88750 -95.88815 -95.88843 -95.88829 -95.88776
           R1           1.47000   1.46791   1.46630   1.46551   1.46551
           R2           1.01536   1.01546   1.01516   1.01446   1.01352
           R3           1.01545   1.01554   1.01519   1.01450   1.01360
           R4           1.10033   1.10120   1.10164   1.10165   1.10111
           R5           1.09198   1.09240   1.09306   1.09383   1.09465
           R6           1.09454   1.09392   1.09328   1.09264   1.09218
           A1         109.95002 109.91918 110.04896 110.22156 110.54663
           A2         109.34380 109.59120 109.99429 110.52651 111.03512
           A3         105.12269 105.55353 106.15262 106.79210 107.38156
           A4         115.13049 115.41486 115.53364 115.50454 115.29463
           A5         109.51378 109.30058 109.23862 109.35788 109.58641
           A6         109.53080 109.33580 109.25304 109.24251 109.40098
           A7         108.35633 108.14410 107.83336 107.43428 107.12295
           A8         107.01861 107.34289 107.68446 108.01533 108.18139
           A9         106.96465 106.96885 106.95889 106.94576 106.91643
           D1          36.75174  46.75167  56.75166  66.75166  76.75166
           D2         159.11521 168.87249 178.49974-171.95217-162.33118
           D3         -83.87312 -74.34516 -64.81207 -55.21810 -45.41091
           D4         -78.18223 -68.82375 -59.85885 -51.06640 -42.32284
           D5          44.18124  53.29706  61.88923  70.22977  78.59432
           D6         161.19291 170.07941 178.57742-173.03616-164.48541
                          16        17        18        19        20
     Eigenvalues --   -95.88697 -95.88610 -95.88538 -95.88501 -95.88513
           R1           1.46645   1.46833   1.47034   1.47272   1.47397
           R2           1.01250   1.01183   1.01141   1.01186   1.01270
           R3           1.01268   1.01202   1.01157   1.01185   1.01263
           R4           1.10015   1.09864   1.09689   1.09507   1.09374
           R5           1.09534   1.09576   1.09593   1.09560   1.09499
           R6           1.09192   1.09216   1.09284   1.09427   1.09605
           A1         110.81809 111.07445 111.10565 110.92190 110.66521
           A2         111.46734 111.60474 111.52571 111.00293 110.41375
           A3         107.77603 107.83293 107.59392 106.86206 106.10326
           A4         114.90373 114.24026 113.38629 112.35288 111.32996
           A5         109.90903 110.26909 110.59736 110.78354 110.80765
           A6         109.67827 110.21864 110.91221 111.83955 112.77087
           A7         106.87474 106.83268 106.93776 107.23326 107.54109
           A8         108.22129 107.99204 107.61743 107.08965 106.68695
           A9         106.92685 106.97954 107.10123 107.26819 107.43947
           D1          86.75170  96.75157 106.75166 116.75171 126.75151
           D2        -152.68262-142.92883-133.14177-123.33449-113.61044
           D3         -35.39964 -25.03975 -14.46298  -3.71995   6.86883
           D4         -33.28094 -23.61983 -13.28396  -1.89565   9.57839
           D5          87.28473  96.69977 106.82260 118.01815 129.21644
           D6        -155.43229-145.41115-134.49860-122.36731-110.30430
                          21        22        23        24        25
     Eigenvalues --   -95.88571 -95.88654 -95.88741 -95.88808 -95.88842
           R1           1.47368   1.47219   1.47015   1.46816   1.46657
           R2           1.01371   1.01462   1.01527   1.01548   1.01524
           R3           1.01360   1.01453   1.01520   1.01543   1.01523
           R4           1.09288   1.09252   1.09249   1.09270   1.09307
           R5           1.09438   1.09389   1.09351   1.09328   1.09313
           R6           1.09790   1.09952   1.10079   1.10143   1.10171
           A1         110.38785 110.17609 110.03649 109.96003 110.04765
           A2         109.83558 109.46319 109.34171 109.50656 109.86832
           A3         105.47045 105.16590 105.19213 105.52241 106.05645
           A4         110.41331 109.70313 109.24149 109.10392 109.17291
           A5         110.70036 110.47121 110.15012 109.73403 109.34372
           A6         113.60277 114.28667 114.83370 115.22038 115.49630
           A7         107.79536 107.88971 107.79131 107.49882 107.12869
           A8         106.45639 106.49116 106.74010 107.14916 107.58998
           A9         107.61352 107.74119 107.81816 107.84715 107.78654
           D1         136.75153 146.75153 156.75171 166.75165 176.75172
           D2        -103.95832 -94.43418 -85.03148 -75.71197 -66.34194
           D3          17.24799  27.25369  36.90445  46.21698  55.39995
           D4          20.86559  31.57131  41.68736  51.23897  60.33306
           D5         140.15574 150.38560 159.90417 168.77536 177.23940
           D6         -98.63795 -87.92653 -78.15990 -69.29570 -61.01871
                          26        27        28        29        30
     Eigenvalues --   -95.88835 -95.88789 -95.88713 -95.88624 -95.88544
           R1           1.46562   1.46539   1.46592   1.46725   1.46958
           R2           1.01461   1.01367   1.01259   1.01165   1.01125
           R3           1.01468   1.01386   1.01292   1.01204   1.01155
           R4           1.09348   1.09400   1.09458   1.09517   1.09555
           R5           1.09306   1.09305   1.09305   1.09321   1.09360
           R6           1.10146   1.10085   1.09985   1.09841   1.09671
           A1         110.17430 110.47382 110.78150 111.12840 111.20608
           A2         110.40170 110.97413 111.48883 111.78257 111.68563
           A3         106.65796 107.28291 107.75430 108.01853 107.77555
           A4         109.43586 109.79009 110.19429 110.56990 110.80012
           A5         109.00346 108.88303 108.96996 109.45317 110.36890
           A6         115.63511 115.57987 115.31185 114.69981 113.74175
           A7         106.68534 106.30855 106.07114 106.10475 106.45534
           A8         108.01224 108.34770 108.50979 108.45828 108.12116
           A9         107.69808 107.51947 107.35439 107.15587 107.02238
           D1        -173.24831-163.24833-153.24838-143.24833-133.24835
           D2         -56.91843 -47.24089 -37.25063 -26.71177 -15.58570
           D3          64.54099  73.85408  83.51192  93.73819 104.70882
           D4          69.20394  77.88635  86.75679  95.98495 106.30777
           D5        -174.46618-166.10621-157.24547-147.47848-136.02958
           D6         -53.00676 -45.01124 -36.48292 -27.02852 -15.73505
                          31        32        33        34        35
     Eigenvalues --   -95.88501 -95.88517 -95.88586 -95.88678 -95.88765
           R1           1.47250   1.47418   1.47354   1.47169   1.46932
           R2           1.01177   1.01293   1.01411   1.01502   1.01543
           R3           1.01180   1.01282   1.01396   1.01495   1.01542
           R4           1.09560   1.09517   1.09475   1.09434   1.09393
           R5           1.09445   1.09568   1.09718   1.09867   1.09998
           R6           1.09495   1.09392   1.09338   1.09314   1.09311
           A1         110.97810 110.60931 110.32273 110.12420 110.02113
           A2         111.06271 110.27490 109.65340 109.35731 109.40283
           A3         106.93533 105.92839 105.24384 105.02057 105.23994
           A4         110.82807 110.66043 110.41902 110.16783 109.83662
           A5         111.74962 113.18340 114.33519 115.07201 115.44543
           A6         112.39485 111.04081 109.90794 109.16568 108.91056
           A7         107.16060 107.87783 108.42417 108.61780 108.51958
           A8         107.45819 106.71881 106.17574 106.01404 106.17672
           A9         106.97624 107.06565 107.21433 107.38775 107.53565
           D1        -123.24837-113.24853-103.24844 -93.24835 -83.24826
           D2          -3.79950   7.97621  19.33237  29.93496  39.81625
           D3         116.49134 128.42685 139.94527 150.72460 160.86094
           D4         117.93741 129.91228 141.28438 151.83575 161.60382
           D5        -122.61372-108.86298 -96.13482 -84.98094 -75.33167
           D6          -2.32288  11.58766  24.47808  35.80870  45.71302
                          36        37
     Eigenvalues --   -95.88823 -95.88844
           R1           1.46741   1.46620
           R2           1.01545   1.01507
           R3           1.01541   1.01508
           R4           1.09356   1.09316
           R5           1.10100   1.10166
           R6           1.09310   1.09316
           A1         110.01688 110.06125
           A2         109.64715 110.06676
           A3         105.70227 106.26236
           A4         109.52520 109.22837
           A5         115.58540 115.55679
           A6         108.95328 109.24988
           A7         108.19376 107.75256
           A8         106.53799 106.95962
           A9         107.66241 107.75350
           D1         -73.24831 -63.24823
           D2          49.23742  58.40205
           D3         170.57686-179.92971
           D4         170.90879 179.95742
           D5         -66.60548 -58.39229
           D6          54.73396  63.27594
 Largest change from initial coordinates is atom    4       0.894 Angstoms.
 Leave Link  103 at Sat Feb 16 14:18:22 2019, MaxMem=   196608000 cpu:        10.3
 (Enter /cm/shared/c3ddb/gaussian/09.d01/g09/l202.exe)
                          Input orientation:                          
 ---------------------------------------------------------------------
 Center     Atomic      Atomic             Coordinates (Angstroms)
 Number     Number       Type             X           Y           Z
 ---------------------------------------------------------------------
      1          7           0        0.882529   -0.205651   -0.149256
      2          6           0       -0.561222   -0.081873    0.074332
      3          1           0       -0.841718   -0.672077    0.950677
      4          1           0       -0.932187    0.944073    0.227544
      5          1           0       -1.095839   -0.505545   -0.779885
      6          1           0        1.391435    0.183439    0.638140
      7          1           0        1.157009    0.337649   -0.961578
 ---------------------------------------------------------------------
                    Distance matrix (angstroms):
                    1          2          3          4          5
     1  N    0.000000
     2  C    1.466195   0.000000
     3  H    2.097720   1.093160   0.000000
     4  H    2.181064   1.101660   1.772864   0.000000
     5  H    2.097992   1.093161   1.757031   1.772876   0.000000
     6  H    1.015071   2.049668   2.411754   2.479188   2.944831
     7  H    1.015077   2.049738   2.944686   2.479215   2.412325
                    6          7
     6  H    0.000000
     7  H    1.624142   0.000000
 Stoichiometry    CH5N
 Framework group  C1[X(CH5N)]
 Deg. of freedom    15
 Full point group                 C1      NOp   1
 RotChk:  IX=2 Diff= 1.93D-15
 Largest Abelian subgroup         C1      NOp   1
 Largest concise Abelian subgroup C1      NOp   1
                         Standard orientation:                         
 ---------------------------------------------------------------------
 Center     Atomic      Atomic             Coordinates (Angstroms)
 Number     Number       Type             X           Y           Z
 ---------------------------------------------------------------------
      1          7           0        0.752407   -0.000021    0.123702
      2          6           0       -0.706950   -0.000017   -0.017742
      3          1           0       -1.117529    0.878668    0.486573
      4          1           0       -1.084117   -0.000067   -1.052827
      5          1           0       -1.117948   -0.878362    0.486829
      6          1           0        1.147177    0.812077   -0.340002
      7          1           0        1.147271   -0.812064   -0.340033
 ---------------------------------------------------------------------
 Rotational constants (GHZ):    103.4413211     22.6890248     21.8228093
 Leave Link  202 at Sat Feb 16 14:18:22 2019, MaxMem=   196608000 cpu:         0.6
 (Enter /cm/shared/c3ddb/gaussian/09.d01/g09/l601.exe)
 Copying SCF densities to generalized density rwf, IOpCl= 0 IROHF=0.

 **********************************************************************

            Population analysis using the SCF density.

 **********************************************************************

 Orbital symmetries:
       Occupied  (A) (A) (A) (A) (A) (A) (A) (A) (A)
       Virtual   (A) (A) (A) (A) (A) (A) (A) (A) (A) (A) (A) (A)
                 (A) (A) (A) (A) (A) (A) (A) (A) (A) (A) (A) (A)
                 (A) (A) (A) (A) (A) (A) (A) (A) (A) (A) (A) (A)
                 (A) (A) (A) (A) (A) (A) (A) (A) (A) (A) (A) (A)
                 (A) (A) (A) (A) (A) (A) (A) (A) (A)
 The electronic state is 1-A.
 Alpha  occ. eigenvalues --  -14.28196 -10.18277  -0.87127  -0.65837  -0.48686
 Alpha  occ. eigenvalues --   -0.43797  -0.40089  -0.36739  -0.23442
 Alpha virt. eigenvalues --    0.04197   0.07866   0.09780   0.11790   0.13935
 Alpha virt. eigenvalues --    0.21429   0.30994   0.32995   0.37576   0.37987
 Alpha virt. eigenvalues --    0.48211   0.54473   0.58439   0.58641   0.63862
 Alpha virt. eigenvalues --    0.71829   0.72969   0.74145   1.02698   1.05795
 Alpha virt. eigenvalues --    1.05881   1.32461   1.38462   1.46079   1.48330
 Alpha virt. eigenvalues --    1.49880   1.55200   1.62560   1.64551   1.70668
 Alpha virt. eigenvalues --    1.75454   1.84346   1.95175   2.02436   2.12599
 Alpha virt. eigenvalues --    2.15208   2.28499   2.34941   2.40637   2.43119
 Alpha virt. eigenvalues --    2.43660   2.54063   2.54500   2.58600   2.73255
 Alpha virt. eigenvalues --    2.73778   2.85537   2.95014   3.10629   3.38593
 Alpha virt. eigenvalues --    3.74910   3.80286   4.01087   4.71982   4.83315
 Alpha virt. eigenvalues --   23.87932  35.56842
          Condensed to atoms (all electrons):
               1          2          3          4          5          6
     1  N    6.503418   0.329151  -0.030944  -0.044626  -0.030924   0.372686
     2  C    0.329151   4.760189   0.402603   0.408139   0.402594  -0.048645
     3  H   -0.030944   0.402603   0.586890  -0.042010  -0.027271  -0.008557
     4  H   -0.044626   0.408139  -0.042010   0.648201  -0.042023  -0.005851
     5  H   -0.030924   0.402594  -0.027271  -0.042023   0.586875   0.010076
     6  H    0.372686  -0.048645  -0.008557  -0.005851   0.010076   0.536541
     7  H    0.372682  -0.048652   0.010079  -0.005855  -0.008542  -0.043437
               7
     1  N    0.372682
     2  C   -0.048652
     3  H    0.010079
     4  H   -0.005855
     5  H   -0.008542
     6  H   -0.043437
     7  H    0.536541
 Mulliken charges:
               1
     1  N   -0.471443
     2  C   -0.205379
     3  H    0.109209
     4  H    0.084026
     5  H    0.109216
     6  H    0.187186
     7  H    0.187185
 Sum of Mulliken charges =   0.00000
 Mulliken charges with hydrogens summed into heavy atoms:
               1
     1  N   -0.097072
     2  C    0.097072
 Electronic spatial extent (au):  <R**2>=             95.5167
 Charge=              0.0000 electrons
 Dipole moment (field-independent basis, Debye):
    X=             -0.2018    Y=              0.0001    Z=             -1.3614  Tot=              1.3763
 Quadrupole moment (field-independent basis, Debye-Ang):
   XX=            -13.8052   YY=            -12.6709   ZZ=            -15.2866
   XY=              0.0002   XZ=             -2.0244   YZ=              0.0000
 Traceless Quadrupole moment (field-independent basis, Debye-Ang):
   XX=              0.1157   YY=              1.2500   ZZ=             -1.3657
   XY=              0.0002   XZ=             -2.0244   YZ=              0.0000
 Octapole moment (field-independent basis, Debye-Ang**2):
  XXX=              3.1475  YYY=              0.0006  ZZZ=             -1.4190  XYY=              2.0334
  XXY=             -0.0006  XXZ=             -1.9991  XZZ=             -0.3309  YZZ=             -0.0001
  YYZ=             -0.2660  XYZ=              0.0003
 Hexadecapole moment (field-independent basis, Debye-Ang**3):
 XXXX=            -75.6310 YYYY=            -23.9902 ZZZZ=            -24.6207 XXXY=              0.0008
 XXXZ=             -3.6007 YYYX=             -0.0002 YYYZ=              0.0002 ZZZX=             -1.3543
 ZZZY=             -0.0001 XXYY=            -14.6905 XXZZ=            -17.3552 YYZZ=             -8.0299
 XXYZ=             -0.0004 YYXZ=             -1.8774 ZZXY=              0.0003
 N-N= 4.192501525519D+01 E-N=-3.069929692597D+02  KE= 9.549168508318D+01
 No NMR shielding tensors so no spin-rotation constants.
 Leave Link  601 at Sat Feb 16 14:18:23 2019, MaxMem=   196608000 cpu:         3.2
 (Enter /cm/shared/c3ddb/gaussian/09.d01/g09/l9999.exe)
 1\1\GINC-NODE006\Scan\RB3LYP\6-311G(2d,d,p)\C1H5N1\DUMINDA\16-Feb-2019
 \0\\#P opt=(modredundant, calcfc, noeigentest) b3lyp/cbsb7 scf=xqc\\na
 me\\0,1\N,0.8825287363,-0.2056508998,-0.1492555136\C,-0.5612217959,-0.
 0818732191,0.0743321757\H,-0.8417177423,-0.6720765372,0.9506768735\H,-
 0.9321874521,0.9440732359,0.2275438866\H,-1.0958393937,-0.5055447932,-
 0.7798853447\H,1.3914346344,0.1834392349,0.6381402949\H,1.1570092208,0
 .3376485889,-0.9615783728\\Version=AS64L-G09RevD.01\State=1-A\HF=-95.8
 884439,-95.8882383,-95.8876879,-95.8869013,-95.8860557,-95.8853574,-95
 .885006,-95.8851499,-95.8857568,-95.8866234,-95.8874995,-95.888152,-95
 .8884333,-95.8882909,-95.8877645,-95.8869702,-95.8860996,-95.8853773,-
 95.88501,-95.8851328,-95.8857069,-95.8865438,-95.8874112,-95.8880839,-
 95.8884165,-95.8883471,-95.8878925,-95.8871347,-95.8862379,-95.8854394
 ,-95.8850111,-95.885172,-95.8858575,-95.8867787,-95.887645,-95.8882334
 ,-95.8884392\RMSD=7.382e-09,4.796e-09,4.955e-09,7.719e-09,8.372e-09,2.
 835e-09,2.627e-09,2.834e-09,3.271e-09,9.634e-09,4.153e-09,3.353e-09,3.
 313e-09,3.086e-09,3.191e-09,3.144e-09,2.698e-09,2.940e-09,2.264e-09,9.
 843e-09,3.112e-09,3.051e-09,5.892e-09,4.980e-09,5.168e-09,4.989e-09,5.
 116e-09,6.665e-09,7.739e-09,3.092e-09,3.054e-09,3.853e-09,3.962e-09,7.
 690e-09,8.867e-09,4.092e-09,5.913e-09\PG=C01 [X(C1H5N1)]\\@


 I SUPPOSE A BABY LLAMA HAS A MMAMA AND A PPOPA.
     -- RICHARD AMOUR
 Job cpu time:       0 days  2 hours 55 minutes  9.9 seconds.
 File lengths (MBytes):  RWF=      7 Int=      0 D2E=      0 Chk=      3 Scr=      1
 Normal termination of Gaussian 09 at Sat Feb 16 14:18:23 2019.
