 Entering Gaussian System, Link 0=g09
 Initial command:
 /cm/shared/c3ddb/gaussian/09.d01/g09/l1.exe "/scratch/users/duminda/g09/a14-7584940/Gau-61553.inp" -scrdir="/scratch/users/duminda/g09/a14-7584940/"
 Entering Link 1 = /cm/shared/c3ddb/gaussian/09.d01/g09/l1.exe PID=     61554.
  
 Copyright (c) 1988,1990,1992,1993,1995,1998,2003,2009,2013,
            Gaussian, Inc.  All Rights Reserved.
  
 This is part of the Gaussian(R) 09 program.  It is based on
 the Gaussian(R) 03 system (copyright 2003, Gaussian, Inc.),
 the Gaussian(R) 98 system (copyright 1998, Gaussian, Inc.),
 the Gaussian(R) 94 system (copyright 1995, Gaussian, Inc.),
 the Gaussian 92(TM) system (copyright 1992, Gaussian, Inc.),
 the Gaussian 90(TM) system (copyright 1990, Gaussian, Inc.),
 the Gaussian 88(TM) system (copyright 1988, Gaussian, Inc.),
 the Gaussian 86(TM) system (copyright 1986, Carnegie Mellon
 University), and the Gaussian 82(TM) system (copyright 1983,
 Carnegie Mellon University). Gaussian is a federally registered
 trademark of Gaussian, Inc.
  
 This software contains proprietary and confidential information,
 including trade secrets, belonging to Gaussian, Inc.
  
 This software is provided under written license and may be
 used, copied, transmitted, or stored only in accord with that
 written license.
  
 The following legend is applicable only to US Government
 contracts under FAR:
  
                    RESTRICTED RIGHTS LEGEND
  
 Use, reproduction and disclosure by the US Government is
 subject to restrictions as set forth in subparagraphs (a)
 and (c) of the Commercial Computer Software - Restricted
 Rights clause in FAR 52.227-19.
  
 Gaussian, Inc.
 340 Quinnipiac St., Bldg. 40, Wallingford CT 06492
  
  
 ---------------------------------------------------------------
 Warning -- This program may not be used in any manner that
 competes with the business of Gaussian, Inc. or will provide
 assistance to any competitor of Gaussian, Inc.  The licensee
 of this program is prohibited from giving any competitor of
 Gaussian, Inc. access to this program.  By using this program,
 the user acknowledges that Gaussian, Inc. is engaged in the
 business of creating and licensing software in the field of
 computational chemistry and represents and warrants to the
 licensee that it is not a competitor of Gaussian, Inc. and that
 it will not use this program in any manner prohibited above.
 ---------------------------------------------------------------
  

 Cite this work as:
 Gaussian 09, Revision D.01,
 M. J. Frisch, G. W. Trucks, H. B. Schlegel, G. E. Scuseria, 
 M. A. Robb, J. R. Cheeseman, G. Scalmani, V. Barone, B. Mennucci, 
 G. A. Petersson, H. Nakatsuji, M. Caricato, X. Li, H. P. Hratchian, 
 A. F. Izmaylov, J. Bloino, G. Zheng, J. L. Sonnenberg, M. Hada, 
 M. Ehara, K. Toyota, R. Fukuda, J. Hasegawa, M. Ishida, T. Nakajima, 
 Y. Honda, O. Kitao, H. Nakai, T. Vreven, J. A. Montgomery, Jr., 
 J. E. Peralta, F. Ogliaro, M. Bearpark, J. J. Heyd, E. Brothers, 
 K. N. Kudin, V. N. Staroverov, T. Keith, R. Kobayashi, J. Normand, 
 K. Raghavachari, A. Rendell, J. C. Burant, S. S. Iyengar, J. Tomasi, 
 M. Cossi, N. Rega, J. M. Millam, M. Klene, J. E. Knox, J. B. Cross, 
 V. Bakken, C. Adamo, J. Jaramillo, R. Gomperts, R. E. Stratmann, 
 O. Yazyev, A. J. Austin, R. Cammi, C. Pomelli, J. W. Ochterski, 
 R. L. Martin, K. Morokuma, V. G. Zakrzewski, G. A. Voth, 
 P. Salvador, J. J. Dannenberg, S. Dapprich, A. D. Daniels, 
 O. Farkas, J. B. Foresman, J. V. Ortiz, J. Cioslowski, 
 and D. J. Fox, Gaussian, Inc., Wallingford CT, 2013.
 
 ******************************************
 Gaussian 09:  AS64L-G09RevD.01 24-Apr-2013
                22-Mar-2019 
 ******************************************
 %chk=check.chk
 %mem=1500mb
 %nproc=8
 Will use up to    8 processors via shared memory.
 ----------------------------------------------------------------------
 #P b3lyp/cbsb7 freq iop(7/33=1) scf=(tight, direct) integral=(grid=ult
 rafine, Acc2E=12) scf=xqc iop(2/9=2000)
 ----------------------------------------------------------------------
 1/10=4,30=1,38=1/1,3;
 2/9=2000,12=2,17=6,18=5,40=1/2;
 3/5=4,6=6,7=700,11=2,16=1,25=1,30=1,71=2,74=-5,75=-5,140=1/1,2,3;
 4//1;
 5/5=2,8=3,13=1,32=2,38=5,87=12,98=1/2,8;
 8/6=4,10=90,11=11,87=12/1;
 11/6=1,8=1,9=11,15=111,16=1,87=12/1,2,10;
 10/6=1,87=12/2;
 6/7=2,8=2,9=2,10=2,18=1,28=1/1;
 7/8=1,10=1,25=1,33=1,87=12/1,2,3,16;
 1/10=4,30=1/3;
 99//99;
 Leave Link    1 at Fri Mar 22 11:27:07 2019, MaxMem=   196608000 cpu:         1.0
 (Enter /cm/shared/c3ddb/gaussian/09.d01/g09/l101.exe)
 ----
 name
 ----
 Symbolic Z-matrix:
 Charge =  0 Multiplicity = 1
 H                     1.1936   -0.03722   0.06557 
 H                     1.93777  -0.03722   0.06557 
 
 NAtoms=      2 NQM=        2 NQMF=       0 NMMI=      0 NMMIF=      0
                NMic=       0 NMicF=      0.
                    Isotopes and Nuclear Properties:
 (Nuclear quadrupole moments (NQMom) in fm**2, nuclear magnetic moments (NMagM)
  in nuclear magnetons)

  Atom         1           2
 IAtWgt=           1           1
 AtmWgt=   1.0078250   1.0078250
 NucSpn=           1           1
 AtZEff=   0.0000000   0.0000000
 NQMom=    0.0000000   0.0000000
 NMagM=    2.7928460   2.7928460
 AtZNuc=   1.0000000   1.0000000
 Leave Link  101 at Fri Mar 22 11:27:07 2019, MaxMem=   196608000 cpu:         0.7
 (Enter /cm/shared/c3ddb/gaussian/09.d01/g09/l103.exe)

 GradGradGradGradGradGradGradGradGradGradGradGradGradGradGradGradGradGrad
 Berny optimization.
 Initialization pass.
 Trust Radius=3.00D-01 FncErr=1.00D-07 GrdErr=1.00D-07
 Number of steps in this run=      2 maximum allowed number of steps=      2.
 GradGradGradGradGradGradGradGradGradGradGradGradGradGradGradGradGradGrad

 Leave Link  103 at Fri Mar 22 11:27:07 2019, MaxMem=   196608000 cpu:         0.2
 (Enter /cm/shared/c3ddb/gaussian/09.d01/g09/l202.exe)
                          Input orientation:                          
 ---------------------------------------------------------------------
 Center     Atomic      Atomic             Coordinates (Angstroms)
 Number     Number       Type             X           Y           Z
 ---------------------------------------------------------------------
      1          1           0        1.193598   -0.037224    0.065574
      2          1           0        1.937771   -0.037224    0.065574
 ---------------------------------------------------------------------
 Stoichiometry    H2
 Framework group  D*H[C*(H.H)]
 Deg. of freedom     1
 Full point group                 D*H     NOp   8
 Largest Abelian subgroup         D2H     NOp   8
 Largest concise Abelian subgroup C2      NOp   2
                         Standard orientation:                         
 ---------------------------------------------------------------------
 Center     Atomic      Atomic             Coordinates (Angstroms)
 Number     Number       Type             X           Y           Z
 ---------------------------------------------------------------------
      1          1           0        0.000000    0.000000    0.372087
      2          1           0        0.000000    0.000000   -0.372087
 ---------------------------------------------------------------------
 Rotational constants (GHZ):      0.0000000   1810.9824041   1810.9824041
 Leave Link  202 at Fri Mar 22 11:27:08 2019, MaxMem=   196608000 cpu:         0.3
 (Enter /cm/shared/c3ddb/gaussian/09.d01/g09/l301.exe)
 Standard basis: 6-311G(2d,d,p) (5D, 7F)
 Ernie: Thresh=  0.10000D-02 Tol=  0.10000D-05 Strict=F.
 There are     4 symmetry adapted cartesian basis functions of AG  symmetry.
 There are     0 symmetry adapted cartesian basis functions of B1G symmetry.
 There are     1 symmetry adapted cartesian basis functions of B2G symmetry.
 There are     1 symmetry adapted cartesian basis functions of B3G symmetry.
 There are     0 symmetry adapted cartesian basis functions of AU  symmetry.
 There are     4 symmetry adapted cartesian basis functions of B1U symmetry.
 There are     1 symmetry adapted cartesian basis functions of B2U symmetry.
 There are     1 symmetry adapted cartesian basis functions of B3U symmetry.
 There are     4 symmetry adapted basis functions of AG  symmetry.
 There are     0 symmetry adapted basis functions of B1G symmetry.
 There are     1 symmetry adapted basis functions of B2G symmetry.
 There are     1 symmetry adapted basis functions of B3G symmetry.
 There are     0 symmetry adapted basis functions of AU  symmetry.
 There are     4 symmetry adapted basis functions of B1U symmetry.
 There are     1 symmetry adapted basis functions of B2U symmetry.
 There are     1 symmetry adapted basis functions of B3U symmetry.
    12 basis functions,    16 primitive gaussians,    12 cartesian basis functions
     1 alpha electrons        1 beta electrons
       nuclear repulsion energy         0.7110943404 Hartrees.
 IExCor=  402 DFT=T Ex+Corr=B3LYP ExCW=0 ScaHFX=  0.200000
 ScaDFX=  0.800000  0.720000  1.000000  0.810000 ScalE2=  1.000000  1.000000
 IRadAn=      5 IRanWt=     -1 IRanGd=            0 ICorTp=0 IEmpDi=  4
 NAtoms=    2 NActive=    2 NUniq=    1 SFac= 4.00D+00 NAtFMM=   60 NAOKFM=F Big=F
 Integral buffers will be    131072 words long.
 Raffenetti 2 integral format.
 Two-electron integral symmetry is turned on.
 Leave Link  301 at Fri Mar 22 11:27:08 2019, MaxMem=   196608000 cpu:         0.5
 (Enter /cm/shared/c3ddb/gaussian/09.d01/g09/l302.exe)
 NPDir=0 NMtPBC=     1 NCelOv=     1 NCel=       1 NClECP=     1 NCelD=      1
         NCelK=      1 NCelE2=     1 NClLst=     1 CellRange=     0.0.
 One-electron integrals computed using PRISM.
 One-electron integral symmetry used in STVInt
 NBasis=    12 RedAO= T EigKep=  2.36D-02  NBF=     4     0     1     1     0     4     1     1
 NBsUse=    12 1.00D-06 EigRej= -1.00D+00 NBFU=     4     0     1     1     0     4     1     1
 Precomputing XC quadrature grid using
 IXCGrd= 4 IRadAn=           5 IRanWt=          -1 IRanGd=           0 AccXCQ= 0.00D+00.
 Generated NRdTot=       0 NPtTot=           0 NUsed=           0 NTot=          32
 NSgBfM=    12    12    12    12    12 MxSgAt=     2 MxSgA2=     2.
 Leave Link  302 at Fri Mar 22 11:27:08 2019, MaxMem=   196608000 cpu:         4.3
 (Enter /cm/shared/c3ddb/gaussian/09.d01/g09/l303.exe)
 DipDrv:  MaxL=1.
 Leave Link  303 at Fri Mar 22 11:27:09 2019, MaxMem=   196608000 cpu:         1.2
 (Enter /cm/shared/c3ddb/gaussian/09.d01/g09/l401.exe)
 ExpMin= 1.03D-01 ExpMax= 3.39D+01 ExpMxC= 3.39D+01 IAcc=3 IRadAn=         5 AccDes= 0.00D+00
 Harris functional with IExCor=  402 and IRadAn=       5 diagonalized for initial guess.
 HarFok:  IExCor=  402 AccDes= 0.00D+00 IRadAn=         5 IDoV= 1 UseB2=F ITyADJ=14
 ICtDFT=  3500011 ScaDFX=  1.000000  1.000000  1.000000  1.000000
 FoFCou: FMM=F IPFlag=           0 FMFlag=      100000 FMFlg1=           0
         NFxFlg=           0 DoJE=T BraDBF=F KetDBF=T FulRan=T
         wScrn=  0.000000 ICntrl=     500 IOpCl=  0 I1Cent=   200000004 NGrid=           0
         NMat0=    1 NMatS0=      1 NMatT0=    0 NMatD0=    1 NMtDS0=    0 NMtDT0=    0
 Petite list used in FoFCou.
 Harris En= -1.18797932732074    
 JPrj=0 DoOrth=F DoCkMO=F.
 Initial guess orbital symmetries:
       Occupied  (SGG)
       Virtual   (SGU) (SGG) (SGU) (PIU) (PIU) (SGG) (PIG) (PIG)
                 (SGU) (SGG) (SGU)
 The electronic state of the initial guess is 1-SGG.
 Leave Link  401 at Fri Mar 22 11:27:09 2019, MaxMem=   196608000 cpu:         4.8
 (Enter /cm/shared/c3ddb/gaussian/09.d01/g09/l502.exe)
 Closed shell SCF:
 Using DIIS extrapolation, IDIIS=  1040.
 Integral symmetry usage will be decided dynamically.
 Keep R1 ints in memory in symmetry-blocked form, NReq=872842.
 IVT=        7679 IEndB=        7679 NGot=   196608000 MDV=   196598885
 LenX=   196598885 LenY=   196598003
 Requested convergence on RMS density matrix=1.00D-08 within  64 cycles.
 Requested convergence on MAX density matrix=1.00D-06.
 Requested convergence on             energy=1.00D-06.
 No special actions if energy rises.
 FoFCou: FMM=F IPFlag=           0 FMFlag=           0 FMFlg1=           0
         NFxFlg=           0 DoJE=F BraDBF=F KetDBF=F FulRan=T
         wScrn=  0.000000 ICntrl=     600 IOpCl=  0 I1Cent=           0 NGrid=           0
         NMat0=    1 NMatS0=     78 NMatT0=    0 NMatD0=    1 NMtDS0=    0 NMtDT0=    0
 Petite list used in FoFCou.
 Integral accuracy reduced to 1.0D-05 until final iterations.

 Cycle   1  Pass 0  IDiag  1:
 E= -1.17370141144627    
 DIIS: error= 2.53D-02 at cycle   1 NSaved=   1.
 NSaved= 1 IEnMin= 1 EnMin= -1.17370141144627     IErMin= 1 ErrMin= 2.53D-02
 ErrMax= 2.53D-02  0.00D+00 EMaxC= 1.00D-01 BMatC= 4.09D-03 BMatP= 4.09D-03
 IDIUse=3 WtCom= 7.47D-01 WtEn= 2.53D-01
 Coeff-Com:  0.100D+01
 Coeff-En:   0.100D+01
 Coeff:      0.100D+01
 Gap=     0.477 Goal=   None    Shift=    0.000
 GapD=    0.477 DampG=2.000 DampE=0.500 DampFc=1.0000 IDamp=-1.
 RMSDP=4.49D-03 MaxDP=1.06D-02              OVMax= 6.54D-02

 Cycle   2  Pass 0  IDiag  1:
 E= -1.17929922385755     Delta-E=       -0.005597812411 Rises=F Damp=F
 DIIS: error= 6.00D-03 at cycle   2 NSaved=   2.
 NSaved= 2 IEnMin= 2 EnMin= -1.17929922385755     IErMin= 2 ErrMin= 6.00D-03
 ErrMax= 6.00D-03  0.00D+00 EMaxC= 1.00D-01 BMatC= 1.69D-04 BMatP= 4.09D-03
 IDIUse=3 WtCom= 9.40D-01 WtEn= 6.00D-02
 Coeff-Com:  0.165D+00 0.835D+00
 Coeff-En:   0.000D+00 0.100D+01
 Coeff:      0.155D+00 0.845D+00
 Gap=     0.492 Goal=   None    Shift=    0.000
 RMSDP=8.51D-04 MaxDP=2.33D-03 DE=-5.60D-03 OVMax= 1.23D-02

 Cycle   3  Pass 0  IDiag  1:
 E= -1.17957074407466     Delta-E=       -0.000271520217 Rises=F Damp=F
 DIIS: error= 1.65D-04 at cycle   3 NSaved=   3.
 NSaved= 3 IEnMin= 3 EnMin= -1.17957074407466     IErMin= 3 ErrMin= 1.65D-04
 ErrMax= 1.65D-04  0.00D+00 EMaxC= 1.00D-01 BMatC= 1.96D-07 BMatP= 1.69D-04
 IDIUse=3 WtCom= 9.98D-01 WtEn= 1.65D-03
 Coeff-Com: -0.862D-02-0.829D-02 0.102D+01
 Coeff-En:   0.000D+00 0.000D+00 0.100D+01
 Coeff:     -0.861D-02-0.828D-02 0.102D+01
 Gap=     0.491 Goal=   None    Shift=    0.000
 RMSDP=2.56D-05 MaxDP=6.60D-05 DE=-2.72D-04 OVMax= 3.68D-04

 Cycle   4  Pass 0  IDiag  1:
 E= -1.17957102278590     Delta-E=       -0.000000278711 Rises=F Damp=F
 DIIS: error= 1.59D-06 at cycle   4 NSaved=   4.
 NSaved= 4 IEnMin= 4 EnMin= -1.17957102278590     IErMin= 4 ErrMin= 1.59D-06
 ErrMax= 1.59D-06  0.00D+00 EMaxC= 1.00D-01 BMatC= 1.05D-11 BMatP= 1.96D-07
 IDIUse=1 WtCom= 1.00D+00 WtEn= 0.00D+00
 Coeff-Com:  0.846D-05-0.386D-03-0.565D-02 0.101D+01
 Coeff:      0.846D-05-0.386D-03-0.565D-02 0.101D+01
 Gap=     0.491 Goal=   None    Shift=    0.000
 RMSDP=2.13D-07 MaxDP=6.30D-07 DE=-2.79D-07 OVMax= 3.01D-06

 Initial convergence to 1.0D-05 achieved.  Increase integral accuracy.
 Cycle   5  Pass 1  IDiag  1:
 E= -1.17957105544873     Delta-E=       -0.000000032663 Rises=F Damp=F
 DIIS: error= 1.60D-08 at cycle   1 NSaved=   1.
 NSaved= 1 IEnMin= 1 EnMin= -1.17957105544873     IErMin= 1 ErrMin= 1.60D-08
 ErrMax= 1.60D-08  0.00D+00 EMaxC= 1.00D-01 BMatC= 2.48D-15 BMatP= 2.48D-15
 IDIUse=1 WtCom= 1.00D+00 WtEn= 0.00D+00
 Coeff-Com:  0.100D+01
 Coeff:      0.100D+01
 Gap=     0.491 Goal=   None    Shift=    0.000
 RMSDP=2.13D-07 MaxDP=6.30D-07 DE=-3.27D-08 OVMax= 3.39D-08

 Cycle   6  Pass 1  IDiag  1:
 E= -1.17957105544873     Delta-E=        0.000000000000 Rises=F Damp=F
 DIIS: error= 3.54D-09 at cycle   2 NSaved=   2.
 NSaved= 2 IEnMin= 2 EnMin= -1.17957105544873     IErMin= 2 ErrMin= 3.54D-09
 ErrMax= 3.54D-09  0.00D+00 EMaxC= 1.00D-01 BMatC= 5.54D-17 BMatP= 2.48D-15
 IDIUse=1 WtCom= 1.00D+00 WtEn= 0.00D+00
 Coeff-Com:  0.114D+00 0.886D+00
 Coeff:      0.114D+00 0.886D+00
 Gap=     0.491 Goal=   None    Shift=    0.000
 RMSDP=5.67D-10 MaxDP=1.64D-09 DE=-3.55D-15 OVMax= 7.86D-09

 SCF Done:  E(RB3LYP) =  -1.17957105545     A.U. after    6 cycles
            NFock=  6  Conv=0.57D-09     -V/T= 2.0379
 KE= 1.136508355400D+00 PE=-3.635484407918D+00 EE= 6.083106566538D-01
 Leave Link  502 at Fri Mar 22 11:27:11 2019, MaxMem=   196608000 cpu:        13.7
 (Enter /cm/shared/c3ddb/gaussian/09.d01/g09/l508.exe)
 QCSCF skips out because SCF is already converged.
 Leave Link  508 at Fri Mar 22 11:27:12 2019, MaxMem=   196608000 cpu:         0.0
 (Enter /cm/shared/c3ddb/gaussian/09.d01/g09/l801.exe)
 DoSCS=F DFT=T ScalE2(SS,OS)=  1.000000  1.000000
 Range of M.O.s used for correlation:     1    12
 NBasis=    12 NAE=     1 NBE=     1 NFC=     0 NFV=     0
 NROrb=     12 NOA=     1 NOB=     1 NVA=    11 NVB=    11
 Leave Link  801 at Fri Mar 22 11:27:12 2019, MaxMem=   196608000 cpu:         0.3
 (Enter /cm/shared/c3ddb/gaussian/09.d01/g09/l1101.exe)
 Using compressed storage, NAtomX=     2.
 Will process      3 centers per pass.
 Leave Link 1101 at Fri Mar 22 11:27:12 2019, MaxMem=   196608000 cpu:         5.2
 (Enter /cm/shared/c3ddb/gaussian/09.d01/g09/l1102.exe)
 Symmetrizing basis deriv contribution to polar:
 IMax=3 JMax=2 DiffMx= 0.00D+00
 Leave Link 1102 at Fri Mar 22 11:27:13 2019, MaxMem=   196608000 cpu:         0.9
 (Enter /cm/shared/c3ddb/gaussian/09.d01/g09/l1110.exe)
 Forming Gx(P) for the SCF density, NAtomX=     2.
 Integral derivatives from FoFJK, PRISM(SPDF).
 Do as many integral derivatives as possible in FoFJK.
 G2DrvN: MDV=     196607880.
 G2DrvN: will do     3 centers at a time, making    1 passes.
 Calling FoFCou, ICntrl=  3107 FMM=F I1Cent=   0 AccDes= 1.00D-12.
 FoFJK:  IHMeth= 1 ICntrl=    3107 DoSepK=F KAlg= 0 I1Cent=   0 FoldK=F
 IRaf=         0 NMat=   1 IRICut=       1 DoRegI=T DoRafI=F ISym2E= 1.
 FoFCou: FMM=F IPFlag=           0 FMFlag=      100000 FMFlg1=           0
         NFxFlg=           0 DoJE=F BraDBF=F KetDBF=F FulRan=T
         wScrn=  0.000000 ICntrl=    3107 IOpCl=  0 I1Cent=           0 NGrid=           0
         NMat0=    1 NMatS0=      1 NMatT0=    0 NMatD0=    1 NMtDS0=    0 NMtDT0=    0
 Petite list used in FoFCou.
 End of G2Drv F.D. properties file   721 does not exist.
 End of G2Drv F.D. properties file   722 does not exist.
 End of G2Drv F.D. properties file   788 does not exist.
 Leave Link 1110 at Fri Mar 22 11:27:13 2019, MaxMem=   196608000 cpu:         4.4
 (Enter /cm/shared/c3ddb/gaussian/09.d01/g09/l1002.exe)
 Minotr:  Closed shell wavefunction.
          IDoAtm=11
          Direct CPHF calculation.
          Differentiating once with respect to electric field.
                with respect to dipole field.
          Differentiating once with respect to nuclear coordinates.
          Using symmetry in CPHF.
          Requested convergence is 1.0D-08 RMS, and 1.0D-07 maximum.
          Secondary convergence is 1.0D-12 RMS, and 1.0D-12 maximum.
          NewPWx=T KeepS1=F KeepF1=F KeepIn=T MapXYZ=F SortEE=F KeepMc=T.
          MDV=     196607964 using IRadAn=       1.
 Generate precomputed XC quadrature information.
 Keep R1 ints in memory in symmetry-blocked form, NReq=862830.
 FoFCou: FMM=F IPFlag=           0 FMFlag=           0 FMFlg1=           0
         NFxFlg=           0 DoJE=F BraDBF=F KetDBF=F FulRan=T
         wScrn=  0.000000 ICntrl=     600 IOpCl=  0 I1Cent=           0 NGrid=           0
         NMat0=    1 NMatS0=     78 NMatT0=    0 NMatD0=    1 NMtDS0=    0 NMtDT0=    0
 Petite list used in FoFCou.
          Solving linear equations simultaneously, MaxMat=       0.
          There are     6 degrees of freedom in the 1st order CPHF.  IDoFFX=4 NUNeed=     6.
      6 vectors produced by pass  0 Test12= 1.83D-16 1.67D-08 XBig12= 4.04D+00 1.97D+00.
 AX will form     6 AO Fock derivatives at one time.
      2 vectors produced by pass  1 Test12= 1.83D-16 1.67D-08 XBig12= 8.60D-02 2.74D-01.
      2 vectors produced by pass  2 Test12= 1.83D-16 1.67D-08 XBig12= 1.30D-05 2.75D-03.
      1 vectors produced by pass  3 Test12= 1.83D-16 1.67D-08 XBig12= 1.58D-10 1.02D-05.
 InvSVY:  IOpt=1 It=  1 EMax= 5.55D-17
 Solved reduced A of dimension    11 with     6 vectors.
 FullF1:  Do perturbations    1 to     6.
 Isotropic polarizability for W=    0.000000        3.03 Bohr**3.
 End of Minotr F.D. properties file   721 does not exist.
 End of Minotr F.D. properties file   722 does not exist.
 End of Minotr F.D. properties file   788 does not exist.
 Leave Link 1002 at Fri Mar 22 11:27:16 2019, MaxMem=   196608000 cpu:        18.2
 (Enter /cm/shared/c3ddb/gaussian/09.d01/g09/l601.exe)
 Copying SCF densities to generalized density rwf, IOpCl= 0 IROHF=0.

 **********************************************************************

            Population analysis using the SCF density.

 **********************************************************************

 Orbital symmetries:
       Occupied  (SGG)
       Virtual   (SGU) (SGG) (SGU) (PIU) (PIU) (SGG) (PIG) (PIG)
                 (SGU) (SGG) (SGU)
 The electronic state is 1-SGG.
 Alpha  occ. eigenvalues --   -0.43394
 Alpha virt. eigenvalues --    0.05739   0.19694   0.46982   1.08461   1.08461
 Alpha virt. eigenvalues --    1.55107   1.82672   1.82672   1.94584   2.37713
 Alpha virt. eigenvalues --    3.31099
          Condensed to atoms (all electrons):
               1          2
     1  H    0.584869   0.415131
     2  H    0.415131   0.584869
 Mulliken charges:
               1
     1  H    0.000000
     2  H    0.000000
 Sum of Mulliken charges =   0.00000
 Mulliken charges with hydrogens summed into heavy atoms:
               1
 APT charges:
               1
     1  H    0.000000
     2  H    0.000000
 Sum of APT charges =   0.00000
 APT charges with hydrogens summed into heavy atoms:
               1
 Electronic spatial extent (au):  <R**2>=              5.2703
 Charge=              0.0000 electrons
 Dipole moment (field-independent basis, Debye):
    X=              0.0000    Y=              0.0000    Z=              0.0000  Tot=              0.0000
 Quadrupole moment (field-independent basis, Debye-Ang):
   XX=             -2.1052   YY=             -2.1052   ZZ=             -1.5483
   XY=              0.0000   XZ=              0.0000   YZ=              0.0000
 Traceless Quadrupole moment (field-independent basis, Debye-Ang):
   XX=             -0.1856   YY=             -0.1856   ZZ=              0.3713
   XY=              0.0000   XZ=              0.0000   YZ=              0.0000
 Octapole moment (field-independent basis, Debye-Ang**2):
  XXX=              0.0000  YYY=              0.0000  ZZZ=              0.0000  XYY=              0.0000
  XXY=              0.0000  XXZ=              0.0000  XZZ=              0.0000  YZZ=              0.0000
  YYZ=              0.0000  XYZ=              0.0000
 Hexadecapole moment (field-independent basis, Debye-Ang**3):
 XXXX=             -2.1806 YYYY=             -2.1806 ZZZZ=             -3.0744 XXXY=              0.0000
 XXXZ=              0.0000 YYYX=              0.0000 YYYZ=              0.0000 ZZZX=              0.0000
 ZZZY=              0.0000 XXYY=             -0.7269 XXZZ=             -0.8922 YYZZ=             -0.8922
 XXYZ=              0.0000 YYXZ=              0.0000 ZZXY=              0.0000
 N-N= 7.110943404155D-01 E-N=-3.635484402617D+00  KE= 1.136508355400D+00
 Symmetry AG   KE= 1.136508355400D+00
 Symmetry B1G  KE= 0.000000000000D+00
 Symmetry B2G  KE= 3.013217676264D-34
 Symmetry B3G  KE= 3.013217676264D-34
 Symmetry AU   KE= 0.000000000000D+00
 Symmetry B1U  KE= 1.235645053975D-32
 Symmetry B2U  KE= 6.269033248620D-35
 Symmetry B3U  KE= 6.269033248620D-35
  Exact polarizability:   1.096   0.000   1.096   0.000   0.000   6.897
 Approx polarizability:   1.162   0.000   1.162   0.000   0.000   8.197
 No NMR shielding tensors so no spin-rotation constants.
 Leave Link  601 at Fri Mar 22 11:27:17 2019, MaxMem=   196608000 cpu:         4.6
 (Enter /cm/shared/c3ddb/gaussian/09.d01/g09/l701.exe)
 Compute integral second derivatives.
 ... and contract with generalized density number  0.
 Entering OneElI...
 Calculate overlap and kinetic energy integrals
    NBasis =  12  MinDer = 2  MaxDer = 2
 Requested accuracy = 0.1000D-14
 PrsmSu:  NPrtUS=   8 ThrOK=T IAlg=1 NPAlg=1 LenDen=           0.
 Prism:   IPart=     0 DynPar=F LinDyn=F Incr=           1.
 PRISM was handed    24574480 working-precision words and    36 shell-pairs
 PRISM was handed    24574480 working-precision words and    36 shell-pairs
 PRISM was handed    24574480 working-precision words and    36 shell-pairs
 PRISM was handed    24574480 working-precision words and    36 shell-pairs
 PRISM was handed    24574480 working-precision words and    36 shell-pairs
 PRISM was handed    24574480 working-precision words and    36 shell-pairs
 PRISM was handed    24574480 working-precision words and    36 shell-pairs
 IPart=  0 NShTot=           7 NBatch=           6 AvBLen=         1.2
 IPart=  6 NShTot=           3 NBatch=           3 AvBLen=         1.0
 IPart=  3 NShTot=           4 NBatch=           4 AvBLen=         1.0
 IPart=  5 NShTot=           3 NBatch=           3 AvBLen=         1.0
 PRISM was handed    24574480 working-precision words and    36 shell-pairs
 IPart=  2 NShTot=           6 NBatch=           6 AvBLen=         1.0
 IPart=  1 NShTot=           7 NBatch=           6 AvBLen=         1.2
 IPart=  7 NShTot=           3 NBatch=           3 AvBLen=         1.0
 IPart=  4 NShTot=           3 NBatch=           3 AvBLen=         1.0
 PrSmSu:  NxtVal=              9.
 Entering OneElI...
 Calculate potential energy integrals
    NBasis =  12  MinDer = 2  MaxDer = 2
 Requested accuracy = 0.1000D-14
 PrsmSu:  NPrtUS=   8 ThrOK=T IAlg=1 NPAlg=1 LenDen=           0.
 Prism:   IPart=     0 DynPar=F LinDyn=F Incr=           1.
 PRISM was handed    24574483 working-precision words and    36 shell-pairs
 PRISM was handed    24574483 working-precision words and    36 shell-pairs
 PRISM was handed    24574483 working-precision words and    36 shell-pairs
 PRISM was handed    24574483 working-precision words and    36 shell-pairs
 PRISM was handed    24574483 working-precision words and    36 shell-pairs
 PRISM was handed    24574483 working-precision words and    36 shell-pairs
 PRISM was handed    24574483 working-precision words and    36 shell-pairs
 PRISM was handed    24574483 working-precision words and    36 shell-pairs
 IPart=  0 NShTot=          14 NBatch=           7 AvBLen=         2.0
 IPart=  2 NShTot=          12 NBatch=           6 AvBLen=         2.0
 IPart=  3 NShTot=           8 NBatch=           4 AvBLen=         2.0
 IPart=  6 NShTot=           6 NBatch=           3 AvBLen=         2.0
 IPart=  5 NShTot=           6 NBatch=           3 AvBLen=         2.0
 IPart=  4 NShTot=           6 NBatch=           3 AvBLen=         2.0
 IPart=  1 NShTot=          14 NBatch=           7 AvBLen=         2.0
 IPart=  7 NShTot=           6 NBatch=           3 AvBLen=         2.0
 PrSmSu:  NxtVal=              9.
 Polarizability after L701:
                1             2             3 
      1  0.109625D+01
      2  0.000000D+00  0.109625D+01
      3  0.000000D+00  0.000000D+00  0.689693D+01
 Dipole Derivatives after L701:
                 1             2             3             4             5 
      1   0.000000D+00  0.000000D+00  0.000000D+00  0.000000D+00  0.000000D+00
      2   0.000000D+00  0.000000D+00  0.000000D+00  0.000000D+00  0.000000D+00
      3   0.000000D+00  0.000000D+00  0.000000D+00  0.000000D+00  0.000000D+00
                 6 
      1   0.000000D+00
      2   0.000000D+00
      3   0.000000D+00
 Hessian after L701:
                1             2             3             4             5 
      1  0.322867D+00
      2  0.000000D+00  0.322867D+00
      3  0.000000D+00  0.000000D+00  0.229200D+00
      4 -0.322867D+00  0.000000D+00  0.000000D+00  0.322867D+00
      5  0.000000D+00 -0.322867D+00  0.000000D+00  0.000000D+00  0.322867D+00
      6  0.000000D+00  0.000000D+00 -0.229200D+00  0.000000D+00  0.000000D+00
                6 
      6  0.229200D+00
 Leave Link  701 at Fri Mar 22 11:27:18 2019, MaxMem=   196608000 cpu:         5.6
 (Enter /cm/shared/c3ddb/gaussian/09.d01/g09/l702.exe)
 L702 exits ... SP integral derivatives will be done elsewhere.
 Leave Link  702 at Fri Mar 22 11:27:18 2019, MaxMem=   196608000 cpu:         0.2
 (Enter /cm/shared/c3ddb/gaussian/09.d01/g09/l703.exe)
 Compute integral second derivatives, UseDBF=F ICtDFT=           0.
 Integral derivatives from FoFJK, PRISM(SPDF).
 ICntrl=    100127.
 Calling FoFJK, ICntrl=    100127 FMM=F ISym2X=1 I1Cent= 0 IOpClX= 0 NMat=1 NMatS=1 NMatT=0.
 FoFJK:  IHMeth= 1 ICntrl=  100127 DoSepK=F KAlg= 0 I1Cent=   0 FoldK=F
 IRaf=         0 NMat=   1 IRICut=       1 DoRegI=T DoRafI=F ISym2E= 1.
 FoFCou: FMM=F IPFlag=           0 FMFlag=      100000 FMFlg1=         800
         NFxFlg=           0 DoJE=F BraDBF=F KetDBF=F FulRan=T
         wScrn=  0.000000 ICntrl=  100127 IOpCl=  0 I1Cent=           0 NGrid=           0
         NMat0=    1 NMatS0=      1 NMatT0=    0 NMatD0=    1 NMtDS0=    0 NMtDT0=    0
 Petite list used in FoFCou.
 FoFCou:  KetSym=F NOpSet=  8 NOpAb=8 NOp=  8.
 FoFCou:  CnvScl= 1.00D+00 Thresh= 1.00D-12 IAcrcy=      10.
 PrismS was handed   196604562 working-precision words and    36 shell-pairs
 FoFCou: LinMIO=F DoNuc=F BraDBF=F KetDBF=F HaveP=T PDBF=F HaveZ=T HaveW=F
         NIJTC =       3 NIJTAt=       0 NIJTCD=       0 NIJTT =       3
         IJTBeg=       1 IJTEnd=       3 KLTBeg=       1 KLTEnd=       3
         IPTBeg=       1 IPTEnd=       3 IPTBCv=       1 IPTECv=       3
         IZTBeg=       1 IZTEnd=       3 IZTBCv=       1 IZTECv=       3
         IWTBeg=       4 IWTEnd=       3 IWTBCv=       4 IWTECv=       3
         INTBeg=       1 INTEnd=       0 IFTBCv=       1 IFTECv=       3
 NCel replicated for PrismC:     1
 CoulSu:  IncDef=  1024 NBBP=            666 NTPThr=   100 NPartT=    8 Incr=           1 LDynOK=F.
 CoulSu:  NPrtUS=   8 ThrOK=T IAlg=1 NPAlg=1 LenDen=           0 LWGrdD=           0 DoCopy=F.
 Enter PrismC: JobTyp=22 DoJE=F Cont=F.
 Enter PrismC: JobTyp=22 DoJE=F Cont=F.
 PrismC:  IPart=     0 DynPar=F LinDyn=F Incr=           1 UseFst=F UseS4=T IGathr=2.
 Enter PrismC: JobTyp=22 DoJE=F Cont=F.
 Enter PrismC: JobTyp=22 DoJE=F Cont=F.
 Enter PrismC: JobTyp=22 DoJE=F Cont=F.
 PrismC was handed    24574434 working-precision words and    36 shell-pairs
 PrismC was handed    24574434 working-precision words and    36 shell-pairs
 Enter PrismC: JobTyp=22 DoJE=F Cont=F.
 PrismC was handed    24574434 working-precision words and    36 shell-pairs
 PrismC was handed    24574434 working-precision words and    36 shell-pairs
 PrismC was handed    24574434 working-precision words and    36 shell-pairs
 Enter PrismC: JobTyp=22 DoJE=F Cont=F.
 PrismC was handed    24574434 working-precision words and    36 shell-pairs
 PrismC was handed    24574434 working-precision words and    36 shell-pairs
 Enter PrismC: JobTyp=22 DoJE=F Cont=F.
 PrismC was handed    24574434 working-precision words and    36 shell-pairs
 IPart=  0 NShTot=          39 NShNF=          39 NShFF=           0 NBatch=          16 AvBLen=         2.4
 IPart=  6 NShTot=          39 NShNF=          39 NShFF=           0 NBatch=          17 AvBLen=         2.3
 IPart=  2 NShTot=          46 NShNF=          46 NShFF=           0 NBatch=          19 AvBLen=         2.4
 IPart=  1 NShTot=          41 NShNF=          41 NShFF=           0 NBatch=          20 AvBLen=         2.1
 IPart=  3 NShTot=          48 NShNF=          48 NShFF=           0 NBatch=          20 AvBLen=         2.4
 IPart=  5 NShTot=          47 NShNF=          47 NShFF=           0 NBatch=          21 AvBLen=         2.2
 IPart=  7 NShTot=          39 NShNF=          39 NShFF=           0 NBatch=          17 AvBLen=         2.3
 IPart=  4 NShTot=          47 NShNF=          47 NShFF=           0 NBatch=          21 AvBLen=         2.2
 CoulSu:  NxtVal=              9.
 ReadGW:  IGet=0 IStart=           1 Next=           1 LGW=           0.
 Remaining memory in FofDFT      187.50 Mw
 CkSvGd:  ISavGI=        -1 IRadAn=       5 IRASav=       5 ISavGd=        -1.
 CalDSu:  NPrtUS=   8 ThrOK=T IAlg=1 NPAlg=2 DoDPD=T LenP=          78 LenD1P=             0.
 IPart=  0 IRanGd=          0 ScrnBf=T ScrnGd=T RCrit=4.00D+00 DoMicB=T.
 IPart=  0         1082 of         1096 points in       2 batches and        6 microbatches, Max-NSigAt=       2 Max-NSgAt2=       2
 IPart=  1          846 of          860 points in       2 batches and        7 microbatches, Max-NSigAt=       2 Max-NSgAt2=       2
 IPart=  3          638 of          668 points in       3 batches and        8 microbatches, Max-NSigAt=       2 Max-NSgAt2=       2
 IPart=  6          780 of          820 points in       3 batches and        5 microbatches, Max-NSigAt=       2 Max-NSgAt2=       2
 IPart=  2          780 of          820 points in       3 batches and        6 microbatches, Max-NSigAt=       2 Max-NSgAt2=       2
 IPart=  4          302 of          324 points in       1 batches and        3 microbatches, Max-NSigAt=       2 Max-NSgAt2=       2
 IPart=  5          785 of          820 points in       3 batches and        8 microbatches, Max-NSigAt=       2 Max-NSgAt2=       2
 IPart=  7          762 of          780 points in       2 batches and        2 microbatches, Max-NSigAt=       2 Max-NSgAt2=       2
 Polarizability after L703:
                1             2             3 
      1  0.109625D+01
      2  0.000000D+00  0.109625D+01
      3  0.000000D+00  0.000000D+00  0.689693D+01
 Dipole Derivatives after L703:
                 1             2             3             4             5 
      1   0.000000D+00  0.000000D+00  0.000000D+00  0.000000D+00  0.000000D+00
      2   0.000000D+00  0.000000D+00  0.000000D+00  0.000000D+00  0.000000D+00
      3   0.000000D+00  0.000000D+00  0.000000D+00  0.000000D+00  0.000000D+00
                 6 
      1   0.000000D+00
      2   0.000000D+00
      3   0.000000D+00
 Hessian after L703:
                1             2             3             4             5 
      1  0.000000D+00
      2  0.000000D+00  0.000000D+00
      3  0.000000D+00  0.000000D+00  0.372421D+00
      4  0.000000D+00  0.000000D+00  0.000000D+00  0.000000D+00
      5  0.000000D+00  0.000000D+00  0.000000D+00  0.000000D+00  0.000000D+00
      6  0.000000D+00  0.000000D+00 -0.372421D+00  0.000000D+00  0.000000D+00
                6 
      6  0.372421D+00
 Leave Link  703 at Fri Mar 22 11:27:18 2019, MaxMem=   196608000 cpu:         3.7
 (Enter /cm/shared/c3ddb/gaussian/09.d01/g09/l716.exe)
 FrcOut:
 IF    =    27 IFX   =    33 IFXYZ =    39
 IFFX  =    45 IFFFX =    66 IFLen =     6
 IFFLen=    21 IFFFLn=     0 IEDerv=    66
 LEDerv=   341 IFroze=   503 ICStrt=   846
 Dipole        = 6.16297582D-32 0.00000000D+00 7.48099499D-18
 DipoleDeriv   = 8.46653476D-16 1.38583002D-52 4.42196748D-17
                -9.03618348D-36 9.43201680D-16-1.94452613D-33
                -2.64391663D-30-8.03632674D-36 5.94244600D-15
                 8.45786115D-16-1.38583002D-52-8.48291997D-18
                 9.03618348D-36 9.40165914D-16 1.94452613D-33
                -1.66631016D-17 8.03632674D-36 8.38708307D-16
 Polarizability= 1.09624831D+00 0.00000000D+00 1.09624831D+00
                -4.02205396D-16 0.00000000D+00 6.89693380D+00
 VibFq2-Diag1:  N=      6 IV=           3 MDV=   196606836 NE2=    32767805
 Full mass-weighted force constant matrix:
 Low frequencies ---   -3.2094   -3.2094   -0.0001    0.0001    0.0001 4419.2041
 OrtVCM:  Ph=1 IPass= 1 DotMx1= 0.00D+00
 OrtVCM:  IS=    1 I=    1 IndO=    1 Dot= 1.00D+00 DotN= 1.00D+00 ElMax1= 7.07D-01 ElMax1N= 7.07D-01
 OrtVCM:  Ph=2 NNew=    0 IAdd=    2 IPass= 1 DotMx2= 0.00D+00
 OrtVCM:  IS=    1 I=    2 IndO=    2 Dot= 1.00D+00 DotN= 1.00D+00 ElMax1= 7.07D-01 ElMax1N= 7.07D-01
 OrtVCM:  Ph=2 NNew=    0 IAdd=    3 IPass= 1 DotMx2= 0.00D+00
 OrtVCM:  IS=    1 I=    3 IndO=    3 Dot= 1.00D+00 DotN= 1.00D+00 ElMax1= 7.07D-01 ElMax1N= 7.07D-01
 OrtVCM:  Ph=2 NNew=    0 IAdd=    4 IPass= 1 DotMx2= 0.00D+00
 OrtVCM:  IS=    1 I=    4 IndO=    4 Dot= 1.00D+00 DotN= 1.00D+00 ElMax1= 7.07D-01 ElMax1N= 7.07D-01
 OrtVCM:  Ph=2 NNew=    0 IAdd=    5 IPass= 1 DotMx2= 0.00D+00
 OrtVCM:  IS=    1 I=    5 IndO=    5 Dot= 1.00D+00 DotN= 1.00D+00 ElMax1= 7.07D-01 ElMax1N= 7.07D-01
 OrtVCM:  Ph=1 IPass= 1 DotMx1= 7.07D-01
 OrtVCM:  Ph=1 IPass= 2 DotMx1= 1.57D-16
 OrtVCM:  IS=    1 I=    1 IndO=    0 Dot= 1.87D-33 DotN= 1.87D-33 ElMax1= 3.06D-17 ElMax1N= 3.06D-17
 SchOr2:  IPass= 1 Test2A= 1.00D-01 IOff=     0 NDo=     1 NNew=     0
 OrtVCM:  Ph=1 IPass= 1 DotMx1= 7.07D-01
 OrtVCM:  Ph=1 IPass= 2 DotMx1= 1.57D-16
 OrtVCM:  IS=    1 I=    1 IndO=    0 Dot= 2.43D-63 DotN= 2.43D-63 ElMax1= 4.93D-32 ElMax1N= 4.93D-32
 SchOr2:  IPass= 1 Test2A= 1.00D-01 IOff=     1 NDo=     1 NNew=     0
 OrtVCM:  Ph=1 IPass= 1 DotMx1= 7.07D-01
 OrtVCM:  Ph=1 IPass= 2 DotMx1= 1.11D-16
 OrtVCM:  IS=    1 I=    1 IndO=    6 Dot= 5.00D-01 DotN= 5.00D-01 ElMax1= 5.00D-01 ElMax1N= 5.00D-01
 SchOr2:  IPass= 1 Test2A= 1.00D-01 IOff=     2 NDo=     1 NNew=     1
 VibFq2-Diag2:  N=      1 IV=           3 MDV=   196606836 NE2=   196606834
 Dipole derivatives wrt mode   1:  3.66458D-16 -3.53473D-34  1.12242D-13
 Vibrational polarizability contributions from mode   1       0.0000000       0.0000000       0.0000000
 Vibrational hyperpolarizability contributions from mode   1       0.0000000       0.0000000       0.0000000
 Diagonal vibrational polarizability:
        0.0000000       0.0000000       0.0000000
 NorSel:  MapVib=      1
 Harmonic frequencies (cm**-1), IR intensities (KM/Mole), Raman scattering
 activities (A**4/AMU), depolarization ratios for plane and unpolarized
 incident light, reduced masses (AMU), force constants (mDyne/A),
 and normal coordinates:
                      1
                     SGG
 Frequencies --   4419.2041
 Red. masses --      1.0078
 Frc consts  --     11.5964
 IR Inten    --      0.0000
  Atom  AN      X      Y      Z
     1   1     0.00   0.00   0.71
     2   1     0.00   0.00  -0.71

 -------------------
 - Thermochemistry -
 -------------------
 Temperature   298.150 Kelvin.  Pressure   1.00000 Atm.
 Atom     1 has atomic number  1 and mass   1.00783
 Atom     2 has atomic number  1 and mass   1.00783
 Molecular mass:     2.01565 amu.
 Principal axes and moments of inertia in atomic units:
                           1         2         3
     Eigenvalues --     0.00000   0.99655   0.99655
           X            0.00000   1.00000   0.00000
           Y            0.00000   0.00000   1.00000
           Z            1.00000   0.00000   0.00000
 This molecule is a prolate symmetric top.
 Rotational symmetry number  2.
 Rotational temperature (Kelvin)     86.91334
 Rotational constant (GHZ):        1810.982404
 Zero-point vibrational energy      26432.7 (Joules/Mol)
                                    6.31757 (Kcal/Mol)
 Vibrational temperatures:   6358.24
          (Kelvin)
 
 Zero-point correction=                           0.010068 (Hartree/Particle)
 Thermal correction to Energy=                    0.012428
 Thermal correction to Enthalpy=                  0.013372
 Thermal correction to Gibbs Free Energy=        -0.001423
 Sum of electronic and zero-point Energies=             -1.169503
 Sum of electronic and thermal Energies=                -1.167143
 Sum of electronic and thermal Enthalpies=              -1.166199
 Sum of electronic and thermal Free Energies=           -1.180994
 
                     E (Thermal)             CV                S
                      KCal/Mol        Cal/Mol-Kelvin    Cal/Mol-Kelvin
 Total                    7.799              4.968             31.140
 Electronic               0.000              0.000              0.000
 Translational            0.889              2.981             28.080
 Rotational               0.592              1.987              3.059
 Vibrational              6.318              0.000              0.000
                       Q            Log10(Q)             Ln(Q)
 Total Bot       0.451431D+01          0.654591          1.507252
 Total V=0       0.192928D+06          5.285396         12.170075
 Vib (Bot)       0.233989D-04         -4.630805        -10.662822
 Vib (V=0)       0.100000D+01          0.000000          0.000000
 Electronic      0.100000D+01          0.000000          0.000000
 Translational   0.112481D+06          5.051078         11.630537
 Rotational      0.171521D+01          0.234318          0.539538
 Forces in standard orientation:
 -------------------------------------------------------------------
 Center     Atomic                   Forces (Hartrees/Bohr)
 Number     Number              X              Y              Z
 -------------------------------------------------------------------
      1        1           0.000000000    0.000000000   -0.000000269
      2        1           0.000000000    0.000000000    0.000000269
 -------------------------------------------------------------------
 ***** Axes restored to original set *****
 Rotating derivatives, DoTrsp=F IDiff=-2 LEDeriv=    340 LFDPrp=       0 LDFDPr=       0.
 -------------------------------------------------------------------
 Center     Atomic                   Forces (Hartrees/Bohr)
 Number     Number              X              Y              Z
 -------------------------------------------------------------------
      1        1          -0.000000269    0.000000000    0.000000000
      2        1           0.000000269    0.000000000    0.000000000
 -------------------------------------------------------------------
 Cartesian Forces:  Max     0.000000269 RMS     0.000000155
 Z-matrix is all fixed cartesians, so copy forces.
 Force constants in Cartesian coordinates: 
                1             2             3             4             5 
      1  0.372421D+00
      2  0.000000D+00  0.000000D+00
      3  0.000000D+00  0.000000D+00  0.000000D+00
      4 -0.372421D+00  0.000000D+00  0.000000D+00  0.372421D+00
      5  0.000000D+00  0.000000D+00  0.000000D+00  0.000000D+00  0.000000D+00
      6  0.000000D+00  0.000000D+00  0.000000D+00  0.000000D+00  0.000000D+00
                6 
      6  0.000000D+00
 Final forces over variables, Energy=-1.17957106D+00:
 -2.68604993D-07 2.68604993D-07 5.22310197D-19-5.22310197D-19
  2.69860254D-17-2.69860254D-17
 Leave Link  716 at Fri Mar 22 11:27:19 2019, MaxMem=   196608000 cpu:         3.4
 (Enter /cm/shared/c3ddb/gaussian/09.d01/g09/l103.exe)

 GradGradGradGradGradGradGradGradGradGradGradGradGradGradGradGradGradGrad
 Berny optimization.
 Search for a local minimum.
 Step number   1 out of a maximum of    2
 All quantities printed in internal units (Hartrees-Bohrs-Radians)
 Second derivative matrix not updated -- analytic derivatives used.
 The second derivative matrix:
                          X1        Y1        Z1        X2        Y2
           X1           0.37242
           Y1           0.00000   0.00000
           Z1           0.00000   0.00000   0.00000
           X2          -0.37242   0.00000   0.00000   0.37242
           Y2           0.00000   0.00000   0.00000   0.00000   0.00000
           Z2           0.00000   0.00000   0.00000   0.00000   0.00000
                          Z2
           Z2           0.00000
 ITU=  0
     Eigenvalues ---    0.74484
 Angle between quadratic step and forces=  90.00 degrees.
 ClnCor:  largest displacement from symmetrization is 2.28D-23 for atom     2.
 Linear search not attempted -- first point.
 ClnCor:  largest displacement from symmetrization is 0.00D+00 for atom     0.
 TrRot=  0.000000  0.000000  0.000000  0.000000  0.000000  0.000000
 Variable       Old X    -DE/DX   Delta X   Delta X   Delta X     New X
                                 (Linear)    (Quad)   (Total)
    X1        2.25557   0.00000   0.00000   0.00000   0.00000   2.25557
    Y1       -0.07034   0.00000   0.00000   0.00000   0.00000  -0.07034
    Z1        0.12392   0.00000   0.00000   0.00000   0.00000   0.12392
    X2        3.66186   0.00000   0.00000   0.00000   0.00000   3.66186
    Y2       -0.07034   0.00000   0.00000   0.00000   0.00000  -0.07034
    Z2        0.12392   0.00000   0.00000   0.00000   0.00000   0.12392
         Item               Value     Threshold  Converged?
 Maximum Force            0.000000     0.000450     YES
 RMS     Force            0.000000     0.000300     YES
 Maximum Displacement     0.000000     0.001800     YES
 RMS     Displacement     0.000000     0.001200     YES
 Predicted change in Energy=-9.686424D-14
 Optimization completed.
    -- Stationary point found.
 GradGradGradGradGradGradGradGradGradGradGradGradGradGradGradGradGradGrad

 Leave Link  103 at Fri Mar 22 11:27:19 2019, MaxMem=   196608000 cpu:         1.5
 (Enter /cm/shared/c3ddb/gaussian/09.d01/g09/l9999.exe)

 Test job not archived.
 1\1\GINC-NODE084\Freq\RB3LYP\6-311G(2d,d,p)\H2\DUMINDA\22-Mar-2019\0\\
 #P b3lyp/cbsb7 freq iop(7/33=1) scf=(tight, direct) integral=(grid=ult
 rafine, Acc2E=12) scf=xqc iop(2/9=2000)\\name\\0,1\H,1.193598,-0.03722
 4,0.065574\H,1.937771,-0.037224,0.065574\\Version=AS64L-G09RevD.01\Sta
 te=1-SGG\HF=-1.1795711\RMSD=5.670e-10\RMSF=1.551e-07\ZeroPoint=0.01006
 77\Thermal=0.0124282\Dipole=0.,0.,0.\DipoleDeriv=0.,0.,0.,0.,0.,0.,0.,
 0.,0.,0.,0.,0.,0.,0.,0.,0.,0.,0.\Polar=6.8969338,0.,1.0962483,0.,0.,1.
 0962483\PG=D*H [C*(H1.H1)]\NImag=0\\0.37242147,0.,-0.00000020,0.,0.,-0
 .00000020,-0.37242147,0.,0.,0.37242147,0.,0.00000020,0.,0.,-0.00000020
 ,0.,0.,0.00000020,0.,0.,-0.00000020\\0.00000027,0.,0.,-0.00000027,0.,0
 .\\\@


 THE REASON MAN'S BEST FRIEND IS A DOG IS BECAUSE
 HE WAGS HIS TAIL INSTEAD OF HIS TONGUE.
 Job cpu time:       0 days  0 hours  1 minutes 21.9 seconds.
 File lengths (MBytes):  RWF=      5 Int=      0 D2E=      0 Chk=      1 Scr=      1
 Normal termination of Gaussian 09 at Fri Mar 22 11:27:19 2019.
