 Entering Gaussian System, Link 0=g09
 Initial command:
 /cm/shared/c3ddb/gaussian/09.d01/g09/l1.exe "/scratch/users/duminda/g09/a8-7584934/Gau-59022.inp" -scrdir="/scratch/users/duminda/g09/a8-7584934/"
 Entering Link 1 = /cm/shared/c3ddb/gaussian/09.d01/g09/l1.exe PID=     59023.
  
 Copyright (c) 1988,1990,1992,1993,1995,1998,2003,2009,2013,
            Gaussian, Inc.  All Rights Reserved.
  
 This is part of the Gaussian(R) 09 program.  It is based on
 the Gaussian(R) 03 system (copyright 2003, Gaussian, Inc.),
 the Gaussian(R) 98 system (copyright 1998, Gaussian, Inc.),
 the Gaussian(R) 94 system (copyright 1995, Gaussian, Inc.),
 the Gaussian 92(TM) system (copyright 1992, Gaussian, Inc.),
 the Gaussian 90(TM) system (copyright 1990, Gaussian, Inc.),
 the Gaussian 88(TM) system (copyright 1988, Gaussian, Inc.),
 the Gaussian 86(TM) system (copyright 1986, Carnegie Mellon
 University), and the Gaussian 82(TM) system (copyright 1983,
 Carnegie Mellon University). Gaussian is a federally registered
 trademark of Gaussian, Inc.
  
 This software contains proprietary and confidential information,
 including trade secrets, belonging to Gaussian, Inc.
  
 This software is provided under written license and may be
 used, copied, transmitted, or stored only in accord with that
 written license.
  
 The following legend is applicable only to US Government
 contracts under FAR:
  
                    RESTRICTED RIGHTS LEGEND
  
 Use, reproduction and disclosure by the US Government is
 subject to restrictions as set forth in subparagraphs (a)
 and (c) of the Commercial Computer Software - Restricted
 Rights clause in FAR 52.227-19.
  
 Gaussian, Inc.
 340 Quinnipiac St., Bldg. 40, Wallingford CT 06492
  
  
 ---------------------------------------------------------------
 Warning -- This program may not be used in any manner that
 competes with the business of Gaussian, Inc. or will provide
 assistance to any competitor of Gaussian, Inc.  The licensee
 of this program is prohibited from giving any competitor of
 Gaussian, Inc. access to this program.  By using this program,
 the user acknowledges that Gaussian, Inc. is engaged in the
 business of creating and licensing software in the field of
 computational chemistry and represents and warrants to the
 licensee that it is not a competitor of Gaussian, Inc. and that
 it will not use this program in any manner prohibited above.
 ---------------------------------------------------------------
  

 Cite this work as:
 Gaussian 09, Revision D.01,
 M. J. Frisch, G. W. Trucks, H. B. Schlegel, G. E. Scuseria, 
 M. A. Robb, J. R. Cheeseman, G. Scalmani, V. Barone, B. Mennucci, 
 G. A. Petersson, H. Nakatsuji, M. Caricato, X. Li, H. P. Hratchian, 
 A. F. Izmaylov, J. Bloino, G. Zheng, J. L. Sonnenberg, M. Hada, 
 M. Ehara, K. Toyota, R. Fukuda, J. Hasegawa, M. Ishida, T. Nakajima, 
 Y. Honda, O. Kitao, H. Nakai, T. Vreven, J. A. Montgomery, Jr., 
 J. E. Peralta, F. Ogliaro, M. Bearpark, J. J. Heyd, E. Brothers, 
 K. N. Kudin, V. N. Staroverov, T. Keith, R. Kobayashi, J. Normand, 
 K. Raghavachari, A. Rendell, J. C. Burant, S. S. Iyengar, J. Tomasi, 
 M. Cossi, N. Rega, J. M. Millam, M. Klene, J. E. Knox, J. B. Cross, 
 V. Bakken, C. Adamo, J. Jaramillo, R. Gomperts, R. E. Stratmann, 
 O. Yazyev, A. J. Austin, R. Cammi, C. Pomelli, J. W. Ochterski, 
 R. L. Martin, K. Morokuma, V. G. Zakrzewski, G. A. Voth, 
 P. Salvador, J. J. Dannenberg, S. Dapprich, A. D. Daniels, 
 O. Farkas, J. B. Foresman, J. V. Ortiz, J. Cioslowski, 
 and D. J. Fox, Gaussian, Inc., Wallingford CT, 2013.
 
 ******************************************
 Gaussian 09:  AS64L-G09RevD.01 24-Apr-2013
                22-Mar-2019 
 ******************************************
 %chk=check.chk
 %mem=1500mb
 %nproc=8
 Will use up to    8 processors via shared memory.
 --------------------------------------------------------------
 #P opt=(calcfc, noeigentest) b3lyp/cbsb7 scf=xqc iop(2/9=2000)
 --------------------------------------------------------------
 1/10=4,11=1,14=-1,18=20,19=15,26=3,38=1/1,3;
 2/9=2000,12=2,17=6,18=5,40=1/2;
 3/5=4,6=6,7=700,11=2,16=1,25=1,30=1,71=2,74=-5,140=1/1,2,3;
 4//1;
 5/5=2,8=3,13=1,38=5/2,8;
 8/6=4,10=90,11=11/1;
 11/6=1,8=1,9=11,15=111,16=1/1,2,10;
 10/6=1,13=1/2;
 6/7=2,8=2,9=2,10=2,28=1/1;
 7/10=1,18=20,25=1/1,2,3,16;
 1/10=4,11=1,14=-1,18=20,19=15,26=3/3(2);
 2/9=2000/2;
 99//99;
 2/9=2000/2;
 3/5=4,6=6,7=700,11=2,16=1,25=1,30=1,71=1,74=-5/1,2,3;
 4/5=5,16=3,69=1/1;
 5/5=2,8=3,13=1,38=5/2,8;
 7//1,2,3,16;
 1/11=1,14=-1,18=20,19=15,26=3/3(-5);
 2/9=2000/2;
 6/7=2,8=2,9=2,10=2,19=2,28=1/1;
 99/9=1/99;
 Leave Link    1 at Fri Mar 22 11:17:21 2019, MaxMem=   196608000 cpu:         1.3
 (Enter /cm/shared/c3ddb/gaussian/09.d01/g09/l101.exe)
 ----
 name
 ----
 Symbolic Z-matrix:
 Charge =  0 Multiplicity = 1
 H                     0.95774   0.08634   0.02756 
 H                     1.95774   0.08634   0.02756 
 
 Add virtual bond connecting atoms H2         and H1         Dist= 1.89D+00.
 NAtoms=      2 NQM=        2 NQMF=       0 NMMI=      0 NMMIF=      0
                NMic=       0 NMicF=      0.
                    Isotopes and Nuclear Properties:
 (Nuclear quadrupole moments (NQMom) in fm**2, nuclear magnetic moments (NMagM)
  in nuclear magnetons)

  Atom         1           2
 IAtWgt=           1           1
 AtmWgt=   1.0078250   1.0078250
 NucSpn=           1           1
 AtZEff=   0.0000000   0.0000000
 NQMom=    0.0000000   0.0000000
 NMagM=    2.7928460   2.7928460
 AtZNuc=   1.0000000   1.0000000
 Leave Link  101 at Fri Mar 22 11:17:22 2019, MaxMem=   196608000 cpu:         0.9
 (Enter /cm/shared/c3ddb/gaussian/09.d01/g09/l103.exe)

 GradGradGradGradGradGradGradGradGradGradGradGradGradGradGradGradGradGrad
 Berny optimization.
 Initialization pass.
                           ----------------------------
                           !    Initial Parameters    !
                           ! (Angstroms and Degrees)  !
 --------------------------                            --------------------------
 ! Name  Definition              Value          Derivative Info.                !
 --------------------------------------------------------------------------------
 ! R1    R(1,2)                  1.0            calculate D2E/DX2 analytically  !
 --------------------------------------------------------------------------------
 Trust Radius=3.00D-01 FncErr=1.00D-07 GrdErr=1.00D-06
 Number of steps in this run=     20 maximum allowed number of steps=    100.
 GradGradGradGradGradGradGradGradGradGradGradGradGradGradGradGradGradGrad

 Leave Link  103 at Fri Mar 22 11:17:22 2019, MaxMem=   196608000 cpu:         0.1
 (Enter /cm/shared/c3ddb/gaussian/09.d01/g09/l202.exe)
                          Input orientation:                          
 ---------------------------------------------------------------------
 Center     Atomic      Atomic             Coordinates (Angstroms)
 Number     Number       Type             X           Y           Z
 ---------------------------------------------------------------------
      1          1           0        0.957743    0.086341    0.027562
      2          1           0        1.957743    0.086341    0.027562
 ---------------------------------------------------------------------
 Stoichiometry    H2
 Framework group  D*H[C*(H.H)]
 Deg. of freedom     1
 Full point group                 D*H     NOp   8
 Largest Abelian subgroup         D2H     NOp   8
 Largest concise Abelian subgroup C2      NOp   2
                         Standard orientation:                         
 ---------------------------------------------------------------------
 Center     Atomic      Atomic             Coordinates (Angstroms)
 Number     Number       Type             X           Y           Z
 ---------------------------------------------------------------------
      1          1           0        0.000000    0.000000    0.500000
      2          1           0        0.000000    0.000000   -0.500000
 ---------------------------------------------------------------------
 Rotational constants (GHZ):      0.0000000   1002.9102006   1002.9102006
 Leave Link  202 at Fri Mar 22 11:17:22 2019, MaxMem=   196608000 cpu:         0.2
 (Enter /cm/shared/c3ddb/gaussian/09.d01/g09/l301.exe)
 Standard basis: 6-311G(2d,d,p) (5D, 7F)
 Ernie: Thresh=  0.10000D-02 Tol=  0.10000D-05 Strict=F.
 There are     4 symmetry adapted cartesian basis functions of AG  symmetry.
 There are     0 symmetry adapted cartesian basis functions of B1G symmetry.
 There are     1 symmetry adapted cartesian basis functions of B2G symmetry.
 There are     1 symmetry adapted cartesian basis functions of B3G symmetry.
 There are     0 symmetry adapted cartesian basis functions of AU  symmetry.
 There are     4 symmetry adapted cartesian basis functions of B1U symmetry.
 There are     1 symmetry adapted cartesian basis functions of B2U symmetry.
 There are     1 symmetry adapted cartesian basis functions of B3U symmetry.
 There are     4 symmetry adapted basis functions of AG  symmetry.
 There are     0 symmetry adapted basis functions of B1G symmetry.
 There are     1 symmetry adapted basis functions of B2G symmetry.
 There are     1 symmetry adapted basis functions of B3G symmetry.
 There are     0 symmetry adapted basis functions of AU  symmetry.
 There are     4 symmetry adapted basis functions of B1U symmetry.
 There are     1 symmetry adapted basis functions of B2U symmetry.
 There are     1 symmetry adapted basis functions of B3U symmetry.
    12 basis functions,    16 primitive gaussians,    12 cartesian basis functions
     1 alpha electrons        1 beta electrons
       nuclear repulsion energy         0.5291772086 Hartrees.
 IExCor=  402 DFT=T Ex+Corr=B3LYP ExCW=0 ScaHFX=  0.200000
 ScaDFX=  0.800000  0.720000  1.000000  0.810000 ScalE2=  1.000000  1.000000
 IRadAn=      0 IRanWt=     -1 IRanGd=            0 ICorTp=0 IEmpDi=  4
 NAtoms=    2 NActive=    2 NUniq=    1 SFac= 4.00D+00 NAtFMM=   60 NAOKFM=F Big=F
 Integral buffers will be    131072 words long.
 Raffenetti 2 integral format.
 Two-electron integral symmetry is turned on.
 Leave Link  301 at Fri Mar 22 11:17:22 2019, MaxMem=   196608000 cpu:         0.5
 (Enter /cm/shared/c3ddb/gaussian/09.d01/g09/l302.exe)
 NPDir=0 NMtPBC=     1 NCelOv=     1 NCel=       1 NClECP=     1 NCelD=      1
         NCelK=      1 NCelE2=     1 NClLst=     1 CellRange=     0.0.
 One-electron integrals computed using PRISM.
 One-electron integral symmetry used in STVInt
 NBasis=    12 RedAO= T EigKep=  5.33D-02  NBF=     4     0     1     1     0     4     1     1
 NBsUse=    12 1.00D-06 EigRej= -1.00D+00 NBFU=     4     0     1     1     0     4     1     1
 Precomputing XC quadrature grid using
 IXCGrd= 4 IRadAn=           0 IRanWt=          -1 IRanGd=           0 AccXCQ= 0.00D+00.
 Generated NRdTot=       0 NPtTot=           0 NUsed=           0 NTot=          32
 NSgBfM=    12    12    12    12    12 MxSgAt=     2 MxSgA2=     2.
 Leave Link  302 at Fri Mar 22 11:17:23 2019, MaxMem=   196608000 cpu:         3.4
 (Enter /cm/shared/c3ddb/gaussian/09.d01/g09/l303.exe)
 DipDrv:  MaxL=1.
 Leave Link  303 at Fri Mar 22 11:17:23 2019, MaxMem=   196608000 cpu:         1.0
 (Enter /cm/shared/c3ddb/gaussian/09.d01/g09/l401.exe)
 ExpMin= 1.03D-01 ExpMax= 3.39D+01 ExpMxC= 3.39D+01 IAcc=1 IRadAn=         1 AccDes= 0.00D+00
 Harris functional with IExCor=  402 and IRadAn=       1 diagonalized for initial guess.
 HarFok:  IExCor=  402 AccDes= 0.00D+00 IRadAn=         1 IDoV= 1 UseB2=F ITyADJ=14
 ICtDFT=  3500011 ScaDFX=  1.000000  1.000000  1.000000  1.000000
 FoFCou: FMM=F IPFlag=           0 FMFlag=      100000 FMFlg1=           0
         NFxFlg=           0 DoJE=T BraDBF=F KetDBF=T FulRan=T
         wScrn=  0.000000 ICntrl=     500 IOpCl=  0 I1Cent=   200000004 NGrid=           0
         NMat0=    1 NMatS0=      1 NMatT0=    0 NMatD0=    1 NMtDS0=    0 NMtDT0=    0
 Petite list used in FoFCou.
 Harris En= -1.15177301435078    
 JPrj=0 DoOrth=F DoCkMO=F.
 Initial guess orbital symmetries:
       Occupied  (SGG)
       Virtual   (SGU) (SGG) (SGU) (PIU) (PIU) (SGG) (PIG) (PIG)
                 (SGU) (SGG) (SGU)
 The electronic state of the initial guess is 1-SGG.
 Leave Link  401 at Fri Mar 22 11:17:24 2019, MaxMem=   196608000 cpu:         5.1
 (Enter /cm/shared/c3ddb/gaussian/09.d01/g09/l502.exe)
 Closed shell SCF:
 Using DIIS extrapolation, IDIIS=  1040.
 Integral symmetry usage will be decided dynamically.
 Keep R1 ints in memory in symmetry-blocked form, NReq=870370.
 IVT=        7679 IEndB=        7679 NGot=   196608000 MDV=   196598885
 LenX=   196598885 LenY=   196598003
 Requested convergence on RMS density matrix=1.00D-08 within  64 cycles.
 Requested convergence on MAX density matrix=1.00D-06.
 Requested convergence on             energy=1.00D-06.
 No special actions if energy rises.
 FoFCou: FMM=F IPFlag=           0 FMFlag=           0 FMFlg1=           0
         NFxFlg=           0 DoJE=F BraDBF=F KetDBF=F FulRan=T
         wScrn=  0.000000 ICntrl=     600 IOpCl=  0 I1Cent=           0 NGrid=           0
         NMat0=    1 NMatS0=     78 NMatT0=    0 NMatD0=    1 NMtDS0=    0 NMtDT0=    0
 Petite list used in FoFCou.
 Integral accuracy reduced to 1.0D-05 until final iterations.

 Cycle   1  Pass 0  IDiag  1:
 E= -1.15046368856375    
 DIIS: error= 1.45D-02 at cycle   1 NSaved=   1.
 NSaved= 1 IEnMin= 1 EnMin= -1.15046368856375     IErMin= 1 ErrMin= 1.45D-02
 ErrMax= 1.45D-02  0.00D+00 EMaxC= 1.00D-01 BMatC= 1.58D-03 BMatP= 1.58D-03
 IDIUse=3 WtCom= 8.55D-01 WtEn= 1.45D-01
 Coeff-Com:  0.100D+01
 Coeff-En:   0.100D+01
 Coeff:      0.100D+01
 Gap=     0.388 Goal=   None    Shift=    0.000
 GapD=    0.388 DampG=1.000 DampE=0.500 DampFc=0.5000 IDamp=-1.
 Damping current iteration by 5.00D-01
 RMSDP=3.18D-03 MaxDP=9.30D-03              OVMax= 4.02D-02

 Cycle   2  Pass 0  IDiag  1:
 E= -1.15168370156648     Delta-E=       -0.001220013003 Rises=F Damp=T
 DIIS: error= 6.52D-03 at cycle   2 NSaved=   2.
 NSaved= 2 IEnMin= 2 EnMin= -1.15168370156648     IErMin= 2 ErrMin= 6.52D-03
 ErrMax= 6.52D-03  0.00D+00 EMaxC= 1.00D-01 BMatC= 2.97D-04 BMatP= 1.58D-03
 IDIUse=3 WtCom= 9.35D-01 WtEn= 6.52D-02
 Coeff-Com: -0.752D+00 0.175D+01
 Coeff-En:   0.000D+00 0.100D+01
 Coeff:     -0.703D+00 0.170D+01
 Gap=     0.392 Goal=   None    Shift=    0.000
 RMSDP=1.07D-03 MaxDP=2.92D-03 DE=-1.22D-03 OVMax= 6.70D-03

 Cycle   3  Pass 0  IDiag  1:
 E= -1.15275536526628     Delta-E=       -0.001071663700 Rises=F Damp=F
 DIIS: error= 8.21D-05 at cycle   3 NSaved=   3.
 NSaved= 3 IEnMin= 3 EnMin= -1.15275536526628     IErMin= 3 ErrMin= 8.21D-05
 ErrMax= 8.21D-05  0.00D+00 EMaxC= 1.00D-01 BMatC= 5.09D-08 BMatP= 2.97D-04
 IDIUse=1 WtCom= 1.00D+00 WtEn= 0.00D+00
 Coeff-Com:  0.164D-01-0.506D-01 0.103D+01
 Coeff:      0.164D-01-0.506D-01 0.103D+01
 Gap=     0.392 Goal=   None    Shift=    0.000
 RMSDP=9.72D-06 MaxDP=3.33D-05 DE=-1.07D-03 OVMax= 1.03D-04

 Initial convergence to 1.0D-05 achieved.  Increase integral accuracy.
 Cycle   4  Pass 1  IDiag  1:
 E= -1.15275522444535     Delta-E=        0.000000140821 Rises=F Damp=F
 DIIS: error= 8.35D-07 at cycle   1 NSaved=   1.
 NSaved= 1 IEnMin= 1 EnMin= -1.15275522444535     IErMin= 1 ErrMin= 8.35D-07
 ErrMax= 8.35D-07  0.00D+00 EMaxC= 1.00D-01 BMatC= 4.96D-12 BMatP= 4.96D-12
 IDIUse=1 WtCom= 1.00D+00 WtEn= 0.00D+00
 Coeff-Com:  0.100D+01
 Coeff:      0.100D+01
 Gap=     0.392 Goal=   None    Shift=    0.000
 RMSDP=9.72D-06 MaxDP=3.33D-05 DE= 1.41D-07 OVMax= 1.22D-06

 Cycle   5  Pass 1  IDiag  1:
 E= -1.15275522445026     Delta-E=       -0.000000000005 Rises=F Damp=F
 DIIS: error= 7.22D-08 at cycle   2 NSaved=   2.
 NSaved= 2 IEnMin= 2 EnMin= -1.15275522445026     IErMin= 2 ErrMin= 7.22D-08
 ErrMax= 7.22D-08  0.00D+00 EMaxC= 1.00D-01 BMatC= 3.84D-14 BMatP= 4.96D-12
 IDIUse=1 WtCom= 1.00D+00 WtEn= 0.00D+00
 Coeff-Com:  0.533D-01 0.947D+00
 Coeff:      0.533D-01 0.947D+00
 Gap=     0.392 Goal=   None    Shift=    0.000
 RMSDP=2.65D-08 MaxDP=1.02D-07 DE=-4.90D-12 OVMax= 2.81D-07

 Cycle   6  Pass 1  IDiag  1:
 E= -1.15275522445035     Delta-E=        0.000000000000 Rises=F Damp=F
 DIIS: error= 1.32D-08 at cycle   3 NSaved=   3.
 NSaved= 3 IEnMin= 3 EnMin= -1.15275522445035     IErMin= 3 ErrMin= 1.32D-08
 ErrMax= 1.32D-08  0.00D+00 EMaxC= 1.00D-01 BMatC= 1.03D-15 BMatP= 3.84D-14
 IDIUse=1 WtCom= 1.00D+00 WtEn= 0.00D+00
 Coeff-Com: -0.900D-02 0.699D-01 0.939D+00
 Coeff:     -0.900D-02 0.699D-01 0.939D+00
 Gap=     0.392 Goal=   None    Shift=    0.000
 RMSDP=1.76D-09 MaxDP=5.27D-09 DE=-9.37D-14 OVMax= 2.58D-08

 SCF Done:  E(RB3LYP) =  -1.15275522445     A.U. after    6 cycles
            NFock=  6  Conv=0.18D-08     -V/T= 2.2108
 KE= 9.520838081775D-01 PE=-3.162251618124D+00 EE= 5.282353769062D-01
 Leave Link  502 at Fri Mar 22 11:17:25 2019, MaxMem=   196608000 cpu:        10.7
 (Enter /cm/shared/c3ddb/gaussian/09.d01/g09/l508.exe)
 QCSCF skips out because SCF is already converged.
 Leave Link  508 at Fri Mar 22 11:17:25 2019, MaxMem=   196608000 cpu:         0.0
 (Enter /cm/shared/c3ddb/gaussian/09.d01/g09/l801.exe)
 DoSCS=F DFT=T ScalE2(SS,OS)=  1.000000  1.000000
 Range of M.O.s used for correlation:     1    12
 NBasis=    12 NAE=     1 NBE=     1 NFC=     0 NFV=     0
 NROrb=     12 NOA=     1 NOB=     1 NVA=    11 NVB=    11
 Leave Link  801 at Fri Mar 22 11:17:25 2019, MaxMem=   196608000 cpu:         0.2
 (Enter /cm/shared/c3ddb/gaussian/09.d01/g09/l1101.exe)
 Using compressed storage, NAtomX=     2.
 Will process      3 centers per pass.
 Leave Link 1101 at Fri Mar 22 11:17:26 2019, MaxMem=   196608000 cpu:         3.7
 (Enter /cm/shared/c3ddb/gaussian/09.d01/g09/l1102.exe)
 Symmetrizing basis deriv contribution to polar:
 IMax=3 JMax=2 DiffMx= 0.00D+00
 Leave Link 1102 at Fri Mar 22 11:17:26 2019, MaxMem=   196608000 cpu:         0.8
 (Enter /cm/shared/c3ddb/gaussian/09.d01/g09/l1110.exe)
 Forming Gx(P) for the SCF density, NAtomX=     2.
 Integral derivatives from FoFJK, PRISM(SPDF).
 Do as many integral derivatives as possible in FoFJK.
 G2DrvN: MDV=     196607880.
 G2DrvN: will do     3 centers at a time, making    1 passes.
 Calling FoFCou, ICntrl=  3107 FMM=F I1Cent=   0 AccDes= 0.00D+00.
 FoFJK:  IHMeth= 1 ICntrl=    3107 DoSepK=F KAlg= 0 I1Cent=   0 FoldK=F
 IRaf=         0 NMat=   1 IRICut=       1 DoRegI=T DoRafI=F ISym2E= 1.
 FoFCou: FMM=F IPFlag=           0 FMFlag=      100000 FMFlg1=           0
         NFxFlg=           0 DoJE=F BraDBF=F KetDBF=F FulRan=T
         wScrn=  0.000000 ICntrl=    3107 IOpCl=  0 I1Cent=           0 NGrid=           0
         NMat0=    1 NMatS0=      1 NMatT0=    0 NMatD0=    1 NMtDS0=    0 NMtDT0=    0
 Petite list used in FoFCou.
 End of G2Drv F.D. properties file   721 does not exist.
 End of G2Drv F.D. properties file   722 does not exist.
 End of G2Drv F.D. properties file   788 does not exist.
 Leave Link 1110 at Fri Mar 22 11:17:27 2019, MaxMem=   196608000 cpu:         3.9
 (Enter /cm/shared/c3ddb/gaussian/09.d01/g09/l1002.exe)
 Minotr:  Closed shell wavefunction.
          IDoAtm=11
          Direct CPHF calculation.
          Differentiating once with respect to nuclear coordinates.
          Using symmetry in CPHF.
          Requested convergence is 1.0D-08 RMS, and 1.0D-07 maximum.
          Secondary convergence is 1.0D-12 RMS, and 1.0D-12 maximum.
          NewPWx=T KeepS1=F KeepF1=F KeepIn=T MapXYZ=F SortEE=F KeepMc=T.
          MDV=     196607964 using IRadAn=       2.
 Generate precomputed XC quadrature information.
 Keep R1 ints in memory in symmetry-blocked form, NReq=861885.
 FoFCou: FMM=F IPFlag=           0 FMFlag=           0 FMFlg1=           0
         NFxFlg=           0 DoJE=F BraDBF=F KetDBF=F FulRan=T
         wScrn=  0.000000 ICntrl=     600 IOpCl=  0 I1Cent=           0 NGrid=           0
         NMat0=    1 NMatS0=     78 NMatT0=    0 NMatD0=    1 NMtDS0=    0 NMtDT0=    0
 Petite list used in FoFCou.
          Solving linear equations simultaneously, MaxMat=       0.
          There are     6 degrees of freedom in the 1st order CPHF.  IDoFFX=4 NUNeed=     6.
      3 vectors produced by pass  0 Test12= 1.83D-16 1.67D-08 XBig12= 1.21D-02 1.02D-01.
 AX will form     3 AO Fock derivatives at one time.
      1 vectors produced by pass  1 Test12= 1.83D-16 1.67D-08 XBig12= 4.21D-05 5.59D-03.
      1 vectors produced by pass  2 Test12= 1.83D-16 1.67D-08 XBig12= 7.81D-10 2.46D-05.
 InvSVY:  IOpt=1 It=  1 EMax= 8.25D-19
 Solved reduced A of dimension     5 with     3 vectors.
 FullF1:  Do perturbations    4 to     6.
 End of Minotr F.D. properties file   721 does not exist.
 End of Minotr F.D. properties file   722 does not exist.
 End of Minotr F.D. properties file   788 does not exist.
 Leave Link 1002 at Fri Mar 22 11:17:29 2019, MaxMem=   196608000 cpu:        13.5
 (Enter /cm/shared/c3ddb/gaussian/09.d01/g09/l601.exe)
 Copying SCF densities to generalized density rwf, IOpCl= 0 IROHF=0.

 **********************************************************************

            Population analysis using the SCF density.

 **********************************************************************

 Orbital symmetries:
       Occupied  (SGG)
       Virtual   (SGU) (SGG) (SGU) (PIU) (PIU) (SGG) (PIG) (PIG)
                 (SGU) (SGG) (SGU)
 The electronic state is 1-SGG.
 Alpha  occ. eigenvalues --   -0.38953
 Alpha virt. eigenvalues --    0.00264   0.21382   0.38795   1.09148   1.09148
 Alpha virt. eigenvalues --    1.37464   1.65797   1.65797   2.21021   2.35840
 Alpha virt. eigenvalues --    2.58795
          Condensed to atoms (all electrons):
               1          2
     1  H    0.629583   0.370417
     2  H    0.370417   0.629583
 Mulliken charges:
               1
     1  H    0.000000
     2  H    0.000000
 Sum of Mulliken charges =   0.00000
 Mulliken charges with hydrogens summed into heavy atoms:
               1
 APT charges:
               1
     1  H    0.000000
     2  H    0.000000
 Sum of APT charges =   0.00000
 APT charges with hydrogens summed into heavy atoms:
               1
 Electronic spatial extent (au):  <R**2>=              6.5774
 Charge=              0.0000 electrons
 Dipole moment (field-independent basis, Debye):
    X=              0.0000    Y=              0.0000    Z=              0.0000  Tot=              0.0000
 Quadrupole moment (field-independent basis, Debye-Ang):
   XX=             -2.4355   YY=             -2.4355   ZZ=             -1.5741
   XY=              0.0000   XZ=              0.0000   YZ=              0.0000
 Traceless Quadrupole moment (field-independent basis, Debye-Ang):
   XX=             -0.2872   YY=             -0.2872   ZZ=              0.5743
   XY=              0.0000   XZ=              0.0000   YZ=              0.0000
 Octapole moment (field-independent basis, Debye-Ang**2):
  XXX=              0.0000  YYY=              0.0000  ZZZ=              0.0000  XYY=              0.0000
  XXY=              0.0000  XXZ=              0.0000  XZZ=              0.0000  YZZ=              0.0000
  YYZ=              0.0000  XYZ=              0.0000
 Hexadecapole moment (field-independent basis, Debye-Ang**3):
 XXXX=             -2.8157 YYYY=             -2.8157 ZZZZ=             -4.7807 XXXY=              0.0000
 XXXZ=              0.0000 YYYX=              0.0000 YYYZ=              0.0000 ZZZX=              0.0000
 ZZZY=              0.0000 XXYY=             -0.9386 XXZZ=             -1.3114 YYZZ=             -1.3114
 XXYZ=              0.0000 YYXZ=              0.0000 ZZXY=              0.0000
 N-N= 5.291772085900D-01 E-N=-3.162251602928D+00  KE= 9.520838081775D-01
 Symmetry AG   KE= 9.520838081775D-01
 Symmetry B1G  KE= 0.000000000000D+00
 Symmetry B2G  KE= 1.449784204224D-34
 Symmetry B3G  KE= 1.449784204224D-34
 Symmetry AU   KE= 0.000000000000D+00
 Symmetry B1U  KE= 1.287279310780D-32
 Symmetry B2U  KE= 4.845696493326D-35
 Symmetry B3U  KE= 4.845696493326D-35
  Exact polarizability:   0.000   0.000   0.000   0.000   0.000   0.000
 Approx polarizability:   1.240   0.000   1.240   0.000   0.000  14.786
 No NMR shielding tensors so no spin-rotation constants.
 Leave Link  601 at Fri Mar 22 11:17:30 2019, MaxMem=   196608000 cpu:         4.7
 (Enter /cm/shared/c3ddb/gaussian/09.d01/g09/l701.exe)
 Compute integral second derivatives.
 ... and contract with generalized density number  0.
 Leave Link  701 at Fri Mar 22 11:17:30 2019, MaxMem=   196608000 cpu:         3.3
 (Enter /cm/shared/c3ddb/gaussian/09.d01/g09/l702.exe)
 L702 exits ... SP integral derivatives will be done elsewhere.
 Leave Link  702 at Fri Mar 22 11:17:30 2019, MaxMem=   196608000 cpu:         0.2
 (Enter /cm/shared/c3ddb/gaussian/09.d01/g09/l703.exe)
 Compute integral second derivatives, UseDBF=F ICtDFT=           0.
 Integral derivatives from FoFJK, PRISM(SPDF).
 Calling FoFJK, ICntrl=    100147 FMM=F ISym2X=1 I1Cent= 0 IOpClX= 0 NMat=1 NMatS=1 NMatT=0.
 FoFJK:  IHMeth= 1 ICntrl=  100147 DoSepK=F KAlg= 0 I1Cent=   0 FoldK=F
 IRaf=         0 NMat=   1 IRICut=       1 DoRegI=T DoRafI=F ISym2E= 1.
 FoFCou: FMM=F IPFlag=           0 FMFlag=      100000 FMFlg1=         800
         NFxFlg=           0 DoJE=F BraDBF=F KetDBF=F FulRan=T
         wScrn=  0.000000 ICntrl=  100147 IOpCl=  0 I1Cent=           0 NGrid=           0
         NMat0=    1 NMatS0=      1 NMatT0=    0 NMatD0=    1 NMtDS0=    0 NMtDT0=    0
 Petite list used in FoFCou.
 Leave Link  703 at Fri Mar 22 11:17:31 2019, MaxMem=   196608000 cpu:         2.7
 (Enter /cm/shared/c3ddb/gaussian/09.d01/g09/l716.exe)
 Dipole        = 2.46519033D-32 7.22223729D-35-1.00582381D-16
 Polarizability= 0.00000000D+00 0.00000000D+00 0.00000000D+00
                 0.00000000D+00 0.00000000D+00 0.00000000D+00
 ***** Axes restored to original set *****
 -------------------------------------------------------------------
 Center     Atomic                   Forces (Hartrees/Bohr)
 Number     Number              X              Y              Z
 -------------------------------------------------------------------
      1        1           0.086844195    0.000000000    0.000000000
      2        1          -0.086844195    0.000000000    0.000000000
 -------------------------------------------------------------------
 Cartesian Forces:  Max     0.086844195 RMS     0.050139520
 Force constants in Cartesian coordinates: 
                1             2             3             4             5 
      1  0.614634D-01
      2  0.000000D+00  0.459566D-01
      3  0.000000D+00  0.000000D+00  0.459566D-01
      4 -0.614634D-01  0.000000D+00  0.000000D+00  0.614634D-01
      5  0.000000D+00 -0.459566D-01  0.000000D+00  0.000000D+00  0.459566D-01
      6  0.000000D+00  0.000000D+00 -0.459566D-01  0.000000D+00  0.000000D+00
                6 
      6  0.459566D-01
 FormGI is forming the generalized inverse of G from B-inverse, IUseBI=4.
 Force constants in internal coordinates: 
                1 
      1  0.614634D-01
 Leave Link  716 at Fri Mar 22 11:17:31 2019, MaxMem=   196608000 cpu:         0.8
 (Enter /cm/shared/c3ddb/gaussian/09.d01/g09/l103.exe)

 GradGradGradGradGradGradGradGradGradGradGradGradGradGradGradGradGradGrad
 Berny optimization.
 Red2BG is reusing G-inverse.
 Internal  Forces:  Max     0.086844195 RMS     0.086844195
 Search for a local minimum.
 Step number   1 out of a maximum of   20
 All quantities printed in internal units (Hartrees-Bohrs-Radians)
 RMS Force = .86844D-01 SwitMx=.10000D-02 MixMth= 1
 Mixed Optimization -- RFO/linear search
 Second derivative matrix not updated -- analytic derivatives used.
 The second derivative matrix:
                          R1
           R1           0.06146
 ITU=  0
     Eigenvalues ---    0.06146
 RFO step:  Lambda=-6.13896926D-02 EMin= 6.14634110D-02
 Linear search not attempted -- first point.
 Maximum step size (   0.300) exceeded in Quadratic search.
    -- Step size scaled by   0.424
 Iteration  1 RMS(Cart)=  0.14142136 RMS(Int)=  0.10000000
 Iteration  2 RMS(Cart)=  0.07071068 RMS(Int)=  0.00000000
 Iteration  3 RMS(Cart)=  0.00000000 RMS(Int)=  0.00000000
 ITry= 1 IFail=0 DXMaxC= 1.50D-01 DCOld= 1.00D+10 DXMaxT= 3.00D-01 DXLimC= 3.00D+00 Rises=F
 ClnCor:  largest displacement from symmetrization is 1.39D-17 for atom     2.
 Variable       Old X    -DE/DX   Delta X   Delta X   Delta X     New X
                                 (Linear)    (Quad)   (Total)
    R1        1.88973  -0.08684   0.00000  -0.30000  -0.30000   1.58973
         Item               Value     Threshold  Converged?
 Maximum Force            0.086844     0.000450     NO 
 RMS     Force            0.086844     0.000300     NO 
 Maximum Displacement     0.150000     0.001800     NO 
 RMS     Displacement     0.212132     0.001200     NO 
 Predicted change in Energy=-2.328741D-02
 Lowest energy point so far.  Saving SCF results.
 GradGradGradGradGradGradGradGradGradGradGradGradGradGradGradGradGradGrad

 Leave Link  103 at Fri Mar 22 11:17:31 2019, MaxMem=   196608000 cpu:         2.3
 (Enter /cm/shared/c3ddb/gaussian/09.d01/g09/l202.exe)
                          Input orientation:                          
 ---------------------------------------------------------------------
 Center     Atomic      Atomic             Coordinates (Angstroms)
 Number     Number       Type             X           Y           Z
 ---------------------------------------------------------------------
      1          1           0        1.037120    0.086341    0.027562
      2          1           0        1.878366    0.086341    0.027562
 ---------------------------------------------------------------------
 Stoichiometry    H2
 Framework group  D*H[C*(H.H)]
 Deg. of freedom     1
 Full point group                 D*H     NOp   8
 RotChk:  IX=0 Diff= 8.64D-17
 Largest Abelian subgroup         D2H     NOp   8
 Largest concise Abelian subgroup C2      NOp   2
                         Standard orientation:                         
 ---------------------------------------------------------------------
 Center     Atomic      Atomic             Coordinates (Angstroms)
 Number     Number       Type             X           Y           Z
 ---------------------------------------------------------------------
      1          1           0        0.000000    0.000000    0.420623
      2          1           0        0.000000    0.000000   -0.420623
 ---------------------------------------------------------------------
 Rotational constants (GHZ):      0.0000000   1417.1478408   1417.1478408
 Leave Link  202 at Fri Mar 22 11:17:31 2019, MaxMem=   196608000 cpu:         0.3
 (Enter /cm/shared/c3ddb/gaussian/09.d01/g09/l301.exe)
 Standard basis: 6-311G(2d,d,p) (5D, 7F)
 Ernie: Thresh=  0.10000D-02 Tol=  0.10000D-05 Strict=F.
 There are     4 symmetry adapted cartesian basis functions of AG  symmetry.
 There are     0 symmetry adapted cartesian basis functions of B1G symmetry.
 There are     1 symmetry adapted cartesian basis functions of B2G symmetry.
 There are     1 symmetry adapted cartesian basis functions of B3G symmetry.
 There are     0 symmetry adapted cartesian basis functions of AU  symmetry.
 There are     4 symmetry adapted cartesian basis functions of B1U symmetry.
 There are     1 symmetry adapted cartesian basis functions of B2U symmetry.
 There are     1 symmetry adapted cartesian basis functions of B3U symmetry.
 There are     4 symmetry adapted basis functions of AG  symmetry.
 There are     0 symmetry adapted basis functions of B1G symmetry.
 There are     1 symmetry adapted basis functions of B2G symmetry.
 There are     1 symmetry adapted basis functions of B3G symmetry.
 There are     0 symmetry adapted basis functions of AU  symmetry.
 There are     4 symmetry adapted basis functions of B1U symmetry.
 There are     1 symmetry adapted basis functions of B2U symmetry.
 There are     1 symmetry adapted basis functions of B3U symmetry.
    12 basis functions,    16 primitive gaussians,    12 cartesian basis functions
     1 alpha electrons        1 beta electrons
       nuclear repulsion energy         0.6290391655 Hartrees.
 IExCor=  402 DFT=T Ex+Corr=B3LYP ExCW=0 ScaHFX=  0.200000
 ScaDFX=  0.800000  0.720000  1.000000  0.810000 ScalE2=  1.000000  1.000000
 IRadAn=      0 IRanWt=     -1 IRanGd=            0 ICorTp=0 IEmpDi=  4
 NAtoms=    2 NActive=    2 NUniq=    1 SFac= 4.00D+00 NAtFMM=   60 NAOKFM=F Big=F
 Integral buffers will be    131072 words long.
 Raffenetti 2 integral format.
 Two-electron integral symmetry is turned on.
 Leave Link  301 at Fri Mar 22 11:17:32 2019, MaxMem=   196608000 cpu:         0.5
 (Enter /cm/shared/c3ddb/gaussian/09.d01/g09/l302.exe)
 NPDir=0 NMtPBC=     1 NCelOv=     1 NCel=       1 NClECP=     1 NCelD=      1
         NCelK=      1 NCelE2=     1 NClLst=     1 CellRange=     0.0.
 One-electron integrals computed using PRISM.
 One-electron integral symmetry used in STVInt
 NBasis=    12 RedAO= T EigKep=  3.38D-02  NBF=     4     0     1     1     0     4     1     1
 NBsUse=    12 1.00D-06 EigRej= -1.00D+00 NBFU=     4     0     1     1     0     4     1     1
 Precomputing XC quadrature grid using
 IXCGrd= 4 IRadAn=           0 IRanWt=          -1 IRanGd=           0 AccXCQ= 0.00D+00.
 Generated NRdTot=       0 NPtTot=           0 NUsed=           0 NTot=          32
 NSgBfM=    12    12    12    12    12 MxSgAt=     2 MxSgA2=     2.
 Leave Link  302 at Fri Mar 22 11:17:32 2019, MaxMem=   196608000 cpu:         4.4
 (Enter /cm/shared/c3ddb/gaussian/09.d01/g09/l303.exe)
 DipDrv:  MaxL=1.
 Leave Link  303 at Fri Mar 22 11:17:32 2019, MaxMem=   196608000 cpu:         1.1
 (Enter /cm/shared/c3ddb/gaussian/09.d01/g09/l401.exe)
 Initial guess from the checkpoint file:  "check.chk"
 B after Tr=     0.000000    0.000000    0.000000
         Rot=    1.000000    0.000000    0.000000    0.000000 Ang=   0.00 deg.
 Guess basis will be translated and rotated to current coordinates.
 JPrj=2 DoOrth=T DoCkMO=T.
 Initial guess orbital symmetries:
       Occupied  (SGG)
       Virtual   (SGG) (SGG) (SGG) (PIG) (PIG) (SGU) (SGU) (SGU)
                 (SGU) (PIU) (PIU)
 The electronic state of the initial guess is 1-SGG.
 Generating alternative initial guess.
 ExpMin= 1.03D-01 ExpMax= 3.39D+01 ExpMxC= 3.39D+01 IAcc=1 IRadAn=         1 AccDes= 0.00D+00
 Harris functional with IExCor=  402 and IRadAn=       1 diagonalized for initial guess.
 HarFok:  IExCor=  402 AccDes= 0.00D+00 IRadAn=         1 IDoV= 1 UseB2=F ITyADJ=14
 ICtDFT=  3500011 ScaDFX=  1.000000  1.000000  1.000000  1.000000
 FoFCou: FMM=F IPFlag=           0 FMFlag=      100000 FMFlg1=           0
         NFxFlg=           0 DoJE=T BraDBF=F KetDBF=T FulRan=T
         wScrn=  0.000000 ICntrl=     500 IOpCl=  0 I1Cent=   200000004 NGrid=           0
         NMat0=    1 NMatS0=      1 NMatT0=    0 NMatD0=    1 NMtDS0=    0 NMtDT0=    0
 Petite list used in FoFCou.
 Harris En= -1.17812153811216    
 Leave Link  401 at Fri Mar 22 11:17:34 2019, MaxMem=   196608000 cpu:         9.8
 (Enter /cm/shared/c3ddb/gaussian/09.d01/g09/l502.exe)
 Closed shell SCF:
 Using DIIS extrapolation, IDIIS=  1040.
 Integral symmetry usage will be decided dynamically.
 Keep R1 ints in memory in symmetry-blocked form, NReq=870370.
 IVT=        7679 IEndB=        7679 NGot=   196608000 MDV=   196598885
 LenX=   196598885 LenY=   196598003
 Requested convergence on RMS density matrix=1.00D-08 within  64 cycles.
 Requested convergence on MAX density matrix=1.00D-06.
 Requested convergence on             energy=1.00D-06.
 No special actions if energy rises.
 FoFCou: FMM=F IPFlag=           0 FMFlag=           0 FMFlg1=           0
         NFxFlg=           0 DoJE=F BraDBF=F KetDBF=F FulRan=T
         wScrn=  0.000000 ICntrl=     600 IOpCl=  0 I1Cent=           0 NGrid=           0
         NMat0=    1 NMatS0=     78 NMatT0=    0 NMatD0=    1 NMtDS0=    0 NMtDT0=    0
 Petite list used in FoFCou.
 Integral accuracy reduced to 1.0D-05 until final iterations.

 Cycle   1  Pass 0  IDiag  1:
 E= -1.17226624855941    
 DIIS: error= 1.33D-02 at cycle   1 NSaved=   1.
 NSaved= 1 IEnMin= 1 EnMin= -1.17226624855941     IErMin= 1 ErrMin= 1.33D-02
 ErrMax= 1.33D-02  0.00D+00 EMaxC= 1.00D-01 BMatC= 1.80D-03 BMatP= 1.80D-03
 IDIUse=3 WtCom= 8.67D-01 WtEn= 1.33D-01
 Coeff-Com:  0.100D+01
 Coeff-En:   0.100D+01
 Coeff:      0.100D+01
 Recover alternate guess density for next cycle.
 RMSDP=5.31D-03 MaxDP=1.37D-02              OVMax= 0.00D+00

 Cycle   2  Pass 0  IDiag  1:
 E= -1.17029414572461     Delta-E=        0.001972102835 Rises=F Damp=F
 Switch densities from cycles 1 and 2 for lowest energy.
 DIIS: error= 1.87D-02 at cycle   2 NSaved=   2.
 NSaved= 2 IEnMin= 1 EnMin= -1.17226624855941     IErMin= 1 ErrMin= 1.33D-02
 ErrMax= 1.87D-02  0.00D+00 EMaxC= 1.00D+00 BMatC= 2.83D-03 BMatP= 1.80D-03
 IDIUse=1 WtCom= 1.00D+00 WtEn= 0.00D+00
 Coeff-Com:  0.557D+00 0.443D+00
 Coeff:      0.557D+00 0.443D+00
 Gap=     0.809 Goal=   None    Shift=    0.000
 RMSDP=2.04D-03 MaxDP=5.82D-03 DE= 1.97D-03 OVMax= 2.97D-02

 Cycle   3  Pass 0  IDiag  1:
 E= -1.17442356580413     Delta-E=       -0.004129420080 Rises=F Damp=F
 DIIS: error= 2.53D-04 at cycle   3 NSaved=   3.
 NSaved= 3 IEnMin= 3 EnMin= -1.17442356580413     IErMin= 3 ErrMin= 2.53D-04
 ErrMax= 2.53D-04  0.00D+00 EMaxC= 1.00D+00 BMatC= 5.92D-07 BMatP= 1.80D-03
 IDIUse=1 WtCom= 1.00D+00 WtEn= 0.00D+00
 Coeff-Com: -0.816D-02 0.795D-02 0.100D+01
 Coeff:     -0.816D-02 0.795D-02 0.100D+01
 Gap=     0.453 Goal=   None    Shift=    0.000
 RMSDP=3.52D-05 MaxDP=1.06D-04 DE=-4.13D-03 OVMax= 5.11D-04

 Cycle   4  Pass 0  IDiag  1:
 E= -1.17442427046627     Delta-E=       -0.000000704662 Rises=F Damp=F
 DIIS: error= 4.93D-06 at cycle   4 NSaved=   4.
 NSaved= 4 IEnMin= 4 EnMin= -1.17442427046627     IErMin= 4 ErrMin= 4.93D-06
 ErrMax= 4.93D-06  0.00D+00 EMaxC= 1.00D+00 BMatC= 1.31D-10 BMatP= 5.92D-07
 IDIUse=1 WtCom= 1.00D+00 WtEn= 0.00D+00
 Coeff-Com:  0.879D-03-0.675D-04-0.664D-01 0.107D+01
 Coeff:      0.879D-03-0.675D-04-0.664D-01 0.107D+01
 Gap=     0.453 Goal=   None    Shift=    0.000
 RMSDP=3.99D-07 MaxDP=1.14D-06 DE=-7.05D-07 OVMax= 6.61D-06

 Initial convergence to 1.0D-05 achieved.  Increase integral accuracy.
 Cycle   5  Pass 1  IDiag  1:
 E= -1.17442419205412     Delta-E=        0.000000078412 Rises=F Damp=F
 DIIS: error= 1.46D-07 at cycle   1 NSaved=   1.
 NSaved= 1 IEnMin= 1 EnMin= -1.17442419205412     IErMin= 1 ErrMin= 1.46D-07
 ErrMax= 1.46D-07  0.00D+00 EMaxC= 1.00D+00 BMatC= 1.70D-13 BMatP= 1.70D-13
 IDIUse=1 WtCom= 1.00D+00 WtEn= 0.00D+00
 Coeff-Com:  0.100D+01
 Coeff:      0.100D+01
 Gap=     0.453 Goal=   None    Shift=    0.000
 RMSDP=3.99D-07 MaxDP=1.14D-06 DE= 7.84D-08 OVMax= 2.22D-07

 Cycle   6  Pass 1  IDiag  1:
 E= -1.17442419205427     Delta-E=        0.000000000000 Rises=F Damp=F
 DIIS: error= 2.10D-08 at cycle   2 NSaved=   2.
 NSaved= 2 IEnMin= 2 EnMin= -1.17442419205427     IErMin= 2 ErrMin= 2.10D-08
 ErrMax= 2.10D-08  0.00D+00 EMaxC= 1.00D+00 BMatC= 2.13D-15 BMatP= 1.70D-13
 IDIUse=1 WtCom= 1.00D+00 WtEn= 0.00D+00
 Coeff-Com:  0.774D-01 0.923D+00
 Coeff:      0.774D-01 0.923D+00
 Gap=     0.453 Goal=   None    Shift=    0.000
 RMSDP=4.65D-09 MaxDP=1.61D-08 DE=-1.52D-13 OVMax= 5.71D-08

 SCF Done:  E(RB3LYP) =  -1.17442419205     A.U. after    6 cycles
            NFock=  6  Conv=0.47D-08     -V/T= 2.1148
 KE= 1.053511656823D+00 PE=-3.432421860551D+00 EE= 5.754468461761D-01
 Leave Link  502 at Fri Mar 22 11:17:36 2019, MaxMem=   196608000 cpu:        12.7
 (Enter /cm/shared/c3ddb/gaussian/09.d01/g09/l508.exe)
 QCSCF skips out because SCF is already converged.
 Leave Link  508 at Fri Mar 22 11:17:36 2019, MaxMem=   196608000 cpu:         0.0
 (Enter /cm/shared/c3ddb/gaussian/09.d01/g09/l701.exe)
 Compute integral first derivatives.
 ... and contract with generalized density number  0.
 Leave Link  701 at Fri Mar 22 11:17:36 2019, MaxMem=   196608000 cpu:         3.4
 (Enter /cm/shared/c3ddb/gaussian/09.d01/g09/l702.exe)
 L702 exits ... SP integral derivatives will be done elsewhere.
 Leave Link  702 at Fri Mar 22 11:17:37 2019, MaxMem=   196608000 cpu:         0.2
 (Enter /cm/shared/c3ddb/gaussian/09.d01/g09/l703.exe)
 Compute integral first derivatives, UseDBF=F ICtDFT=           0.
 Integral derivatives from FoFJK, PRISM(SPDF).
 Calling FoFJK, ICntrl=      2127 FMM=F ISym2X=1 I1Cent= 0 IOpClX= 0 NMat=1 NMatS=1 NMatT=0.
 FoFJK:  IHMeth= 1 ICntrl=    2127 DoSepK=F KAlg= 0 I1Cent=   0 FoldK=F
 IRaf=         0 NMat=   1 IRICut=       1 DoRegI=T DoRafI=F ISym2E= 1.
 FoFCou: FMM=F IPFlag=           0 FMFlag=      100000 FMFlg1=         800
         NFxFlg=           0 DoJE=F BraDBF=F KetDBF=F FulRan=T
         wScrn=  0.000000 ICntrl=    2127 IOpCl=  0 I1Cent=           0 NGrid=           0
         NMat0=    1 NMatS0=      1 NMatT0=    0 NMatD0=    1 NMtDS0=    0 NMtDT0=    0
 Petite list used in FoFCou.
 Leave Link  703 at Fri Mar 22 11:17:37 2019, MaxMem=   196608000 cpu:         2.0
 (Enter /cm/shared/c3ddb/gaussian/09.d01/g09/l716.exe)
 Dipole        = 7.39557099D-32-1.20370622D-35 0.00000000D+00
 ***** Axes restored to original set *****
 -------------------------------------------------------------------
 Center     Atomic                   Forces (Hartrees/Bohr)
 Number     Number              X              Y              Z
 -------------------------------------------------------------------
      1        1           0.050842358    0.000000000    0.000000000
      2        1          -0.050842358    0.000000000    0.000000000
 -------------------------------------------------------------------
 Cartesian Forces:  Max     0.050842358 RMS     0.029353849
 Leave Link  716 at Fri Mar 22 11:17:37 2019, MaxMem=   196608000 cpu:         0.2
 (Enter /cm/shared/c3ddb/gaussian/09.d01/g09/l103.exe)

 GradGradGradGradGradGradGradGradGradGradGradGradGradGradGradGradGradGrad
 Berny optimization.
 Using GEDIIS/GDIIS optimizer.
 Red2BG is reusing G-inverse.
 Internal  Forces:  Max     0.050842358 RMS     0.050842358
 Search for a local minimum.
 Step number   2 out of a maximum of   20
 All quantities printed in internal units (Hartrees-Bohrs-Radians)
 RMS Force = .50842D-01 SwitMx=.10000D-02 MixMth= 1
 Mixed Optimization -- RFO/linear search
 Update second derivatives using D2CorX and points    1    2
 DE= -2.17D-02 DEPred=-2.33D-02 R= 9.31D-01
 TightC=F SS=  1.41D+00  RLast= 3.00D-01 DXNew= 5.0454D-01 9.0000D-01
 Trust test= 9.31D-01 RLast= 3.00D-01 DXMaxT set to 5.05D-01
 The second derivative matrix:
                          R1
           R1           0.12001
 ITU=  1  0
 Use linear search instead of GDIIS.
     Eigenvalues ---    0.12001
 RFO step:  Lambda= 0.00000000D+00 EMin= 1.20006125D-01
 Quartic linear search produced a step of  0.65820.
 Iteration  1 RMS(Cart)=  0.13962630 RMS(Int)=  0.00000000
 Iteration  2 RMS(Cart)=  0.00000000 RMS(Int)=  0.00000000
 ITry= 1 IFail=0 DXMaxC= 9.87D-02 DCOld= 1.00D+10 DXMaxT= 5.05D-01 DXLimC= 3.00D+00 Rises=F
 ClnCor:  largest displacement from symmetrization is 6.94D-18 for atom     1.
 Variable       Old X    -DE/DX   Delta X   Delta X   Delta X     New X
                                 (Linear)    (Quad)   (Total)
    R1        1.58973  -0.05084  -0.19746   0.00000  -0.19746   1.39226
         Item               Value     Threshold  Converged?
 Maximum Force            0.050842     0.000450     NO 
 RMS     Force            0.050842     0.000300     NO 
 Maximum Displacement     0.098731     0.001800     NO 
 RMS     Displacement     0.139626     0.001200     NO 
 Predicted change in Energy=-7.699824D-03
 Lowest energy point so far.  Saving SCF results.
 GradGradGradGradGradGradGradGradGradGradGradGradGradGradGradGradGradGrad

 Leave Link  103 at Fri Mar 22 11:17:37 2019, MaxMem=   196608000 cpu:         2.1
 (Enter /cm/shared/c3ddb/gaussian/09.d01/g09/l202.exe)
                          Input orientation:                          
 ---------------------------------------------------------------------
 Center     Atomic      Atomic             Coordinates (Angstroms)
 Number     Number       Type             X           Y           Z
 ---------------------------------------------------------------------
      1          1           0        1.089366    0.086341    0.027562
      2          1           0        1.826120    0.086341    0.027562
 ---------------------------------------------------------------------
 Stoichiometry    H2
 Framework group  D*H[C*(H.H)]
 Deg. of freedom     1
 Full point group                 D*H     NOp   8
 RotChk:  IX=0 Diff= 8.27D-17
 Largest Abelian subgroup         D2H     NOp   8
 Largest concise Abelian subgroup C2      NOp   2
                         Standard orientation:                         
 ---------------------------------------------------------------------
 Center     Atomic      Atomic             Coordinates (Angstroms)
 Number     Number       Type             X           Y           Z
 ---------------------------------------------------------------------
      1          1           0        0.000000    0.000000    0.368377
      2          1           0        0.000000    0.000000   -0.368377
 ---------------------------------------------------------------------
 Rotational constants (GHZ):      0.0000000   1847.6348424   1847.6348424
 Leave Link  202 at Fri Mar 22 11:17:38 2019, MaxMem=   196608000 cpu:         0.3
 (Enter /cm/shared/c3ddb/gaussian/09.d01/g09/l301.exe)
 Standard basis: 6-311G(2d,d,p) (5D, 7F)
 Ernie: Thresh=  0.10000D-02 Tol=  0.10000D-05 Strict=F.
 There are     4 symmetry adapted cartesian basis functions of AG  symmetry.
 There are     0 symmetry adapted cartesian basis functions of B1G symmetry.
 There are     1 symmetry adapted cartesian basis functions of B2G symmetry.
 There are     1 symmetry adapted cartesian basis functions of B3G symmetry.
 There are     0 symmetry adapted cartesian basis functions of AU  symmetry.
 There are     4 symmetry adapted cartesian basis functions of B1U symmetry.
 There are     1 symmetry adapted cartesian basis functions of B2U symmetry.
 There are     1 symmetry adapted cartesian basis functions of B3U symmetry.
 There are     4 symmetry adapted basis functions of AG  symmetry.
 There are     0 symmetry adapted basis functions of B1G symmetry.
 There are     1 symmetry adapted basis functions of B2G symmetry.
 There are     1 symmetry adapted basis functions of B3G symmetry.
 There are     0 symmetry adapted basis functions of AU  symmetry.
 There are     4 symmetry adapted basis functions of B1U symmetry.
 There are     1 symmetry adapted basis functions of B2U symmetry.
 There are     1 symmetry adapted basis functions of B3U symmetry.
    12 basis functions,    16 primitive gaussians,    12 cartesian basis functions
     1 alpha electrons        1 beta electrons
       nuclear repulsion energy         0.7182542072 Hartrees.
 IExCor=  402 DFT=T Ex+Corr=B3LYP ExCW=0 ScaHFX=  0.200000
 ScaDFX=  0.800000  0.720000  1.000000  0.810000 ScalE2=  1.000000  1.000000
 IRadAn=      0 IRanWt=     -1 IRanGd=            0 ICorTp=0 IEmpDi=  4
 NAtoms=    2 NActive=    2 NUniq=    1 SFac= 4.00D+00 NAtFMM=   60 NAOKFM=F Big=F
 Integral buffers will be    131072 words long.
 Raffenetti 2 integral format.
 Two-electron integral symmetry is turned on.
 Leave Link  301 at Fri Mar 22 11:17:38 2019, MaxMem=   196608000 cpu:         0.5
 (Enter /cm/shared/c3ddb/gaussian/09.d01/g09/l302.exe)
 NPDir=0 NMtPBC=     1 NCelOv=     1 NCel=       1 NClECP=     1 NCelD=      1
         NCelK=      1 NCelE2=     1 NClLst=     1 CellRange=     0.0.
 One-electron integrals computed using PRISM.
 One-electron integral symmetry used in STVInt
 NBasis=    12 RedAO= T EigKep=  2.29D-02  NBF=     4     0     1     1     0     4     1     1
 NBsUse=    12 1.00D-06 EigRej= -1.00D+00 NBFU=     4     0     1     1     0     4     1     1
 Precomputing XC quadrature grid using
 IXCGrd= 4 IRadAn=           0 IRanWt=          -1 IRanGd=           0 AccXCQ= 0.00D+00.
 Generated NRdTot=       0 NPtTot=           0 NUsed=           0 NTot=          32
 NSgBfM=    12    12    12    12    12 MxSgAt=     2 MxSgA2=     2.
 Leave Link  302 at Fri Mar 22 11:17:38 2019, MaxMem=   196608000 cpu:         3.3
 (Enter /cm/shared/c3ddb/gaussian/09.d01/g09/l303.exe)
 DipDrv:  MaxL=1.
 Leave Link  303 at Fri Mar 22 11:17:38 2019, MaxMem=   196608000 cpu:         1.1
 (Enter /cm/shared/c3ddb/gaussian/09.d01/g09/l401.exe)
 Initial guess from the checkpoint file:  "check.chk"
 B after Tr=     0.000000    0.000000    0.000000
         Rot=    1.000000    0.000000    0.000000    0.000000 Ang=   0.00 deg.
 Guess basis will be translated and rotated to current coordinates.
 JPrj=2 DoOrth=T DoCkMO=T.
 Initial guess orbital symmetries:
       Occupied  (SGG)
       Virtual   (SGG) (SGG) (SGG) (PIG) (PIG) (SGU) (SGU) (SGU)
                 (SGU) (PIU) (PIU)
 The electronic state of the initial guess is 1-SGG.
 Generating alternative initial guess.
 ExpMin= 1.03D-01 ExpMax= 3.39D+01 ExpMxC= 3.39D+01 IAcc=1 IRadAn=         1 AccDes= 0.00D+00
 Harris functional with IExCor=  402 and IRadAn=       1 diagonalized for initial guess.
 HarFok:  IExCor=  402 AccDes= 0.00D+00 IRadAn=         1 IDoV= 1 UseB2=F ITyADJ=14
 ICtDFT=  3500011 ScaDFX=  1.000000  1.000000  1.000000  1.000000
 FoFCou: FMM=F IPFlag=           0 FMFlag=      100000 FMFlg1=           0
         NFxFlg=           0 DoJE=T BraDBF=F KetDBF=T FulRan=T
         wScrn=  0.000000 ICntrl=     500 IOpCl=  0 I1Cent=   200000004 NGrid=           0
         NMat0=    1 NMatS0=      1 NMatT0=    0 NMatD0=    1 NMtDS0=    0 NMtDT0=    0
 Petite list used in FoFCou.
 Harris En= -1.18880789003588    
 Leave Link  401 at Fri Mar 22 11:17:40 2019, MaxMem=   196608000 cpu:         9.7
 (Enter /cm/shared/c3ddb/gaussian/09.d01/g09/l502.exe)
 Closed shell SCF:
 Using DIIS extrapolation, IDIIS=  1040.
 Integral symmetry usage will be decided dynamically.
 Keep R1 ints in memory in symmetry-blocked form, NReq=870370.
 IVT=        7679 IEndB=        7679 NGot=   196608000 MDV=   196598885
 LenX=   196598885 LenY=   196598003
 Requested convergence on RMS density matrix=1.00D-08 within  64 cycles.
 Requested convergence on MAX density matrix=1.00D-06.
 Requested convergence on             energy=1.00D-06.
 No special actions if energy rises.
 FoFCou: FMM=F IPFlag=           0 FMFlag=           0 FMFlg1=           0
         NFxFlg=           0 DoJE=F BraDBF=F KetDBF=F FulRan=T
         wScrn=  0.000000 ICntrl=     600 IOpCl=  0 I1Cent=           0 NGrid=           0
         NMat0=    1 NMatS0=     78 NMatT0=    0 NMatD0=    1 NMtDS0=    0 NMtDT0=    0
 Petite list used in FoFCou.
 Integral accuracy reduced to 1.0D-05 until final iterations.

 Cycle   1  Pass 0  IDiag  1:
 E= -1.17816271197248    
 DIIS: error= 1.09D-02 at cycle   1 NSaved=   1.
 NSaved= 1 IEnMin= 1 EnMin= -1.17816271197248     IErMin= 1 ErrMin= 1.09D-02
 ErrMax= 1.09D-02  0.00D+00 EMaxC= 1.00D-01 BMatC= 1.22D-03 BMatP= 1.22D-03
 IDIUse=3 WtCom= 8.91D-01 WtEn= 1.09D-01
 Coeff-Com:  0.100D+01
 Coeff-En:   0.100D+01
 Coeff:      0.100D+01
 Recover alternate guess density for next cycle.
 RMSDP=5.17D-03 MaxDP=1.40D-02              OVMax= 0.00D+00

 Cycle   2  Pass 0  IDiag  1:
 E= -1.17343777208122     Delta-E=        0.004724939891 Rises=F Damp=F
 Switch densities from cycles 1 and 2 for lowest energy.
 DIIS: error= 2.59D-02 at cycle   2 NSaved=   2.
 NSaved= 2 IEnMin= 1 EnMin= -1.17816271197248     IErMin= 1 ErrMin= 1.09D-02
 ErrMax= 2.59D-02  0.00D+00 EMaxC= 1.00D+00 BMatC= 4.28D-03 BMatP= 1.22D-03
 IDIUse=1 WtCom= 1.00D+00 WtEn= 0.00D+00
 Coeff-Com:  0.654D+00 0.346D+00
 Coeff:      0.654D+00 0.346D+00
 Gap=     0.916 Goal=   None    Shift=    0.000
 RMSDP=1.50D-03 MaxDP=5.03D-03 DE= 4.72D-03 OVMax= 2.26D-02

 Cycle   3  Pass 0  IDiag  1:
 E= -1.17953435303692     Delta-E=       -0.006096580956 Rises=F Damp=F
 DIIS: error= 2.97D-04 at cycle   3 NSaved=   3.
 NSaved= 3 IEnMin= 3 EnMin= -1.17953435303692     IErMin= 3 ErrMin= 2.97D-04
 ErrMax= 2.97D-04  0.00D+00 EMaxC= 1.00D+00 BMatC= 7.53D-07 BMatP= 1.22D-03
 IDIUse=1 WtCom= 1.00D+00 WtEn= 0.00D+00
 Coeff-Com: -0.178D-01 0.401D-02 0.101D+01
 Coeff:     -0.178D-01 0.401D-02 0.101D+01
 Gap=     0.494 Goal=   None    Shift=    0.000
 RMSDP=3.60D-05 MaxDP=1.27D-04 DE=-6.10D-03 OVMax= 5.30D-04

 Cycle   4  Pass 0  IDiag  1:
 E= -1.17953518945911     Delta-E=       -0.000000836422 Rises=F Damp=F
 DIIS: error= 4.64D-06 at cycle   4 NSaved=   4.
 NSaved= 4 IEnMin= 4 EnMin= -1.17953518945911     IErMin= 4 ErrMin= 4.64D-06
 ErrMax= 4.64D-06  0.00D+00 EMaxC= 1.00D+00 BMatC= 1.13D-10 BMatP= 7.53D-07
 IDIUse=1 WtCom= 1.00D+00 WtEn= 0.00D+00
 Coeff-Com:  0.138D-02 0.517D-04-0.625D-01 0.106D+01
 Coeff:      0.138D-02 0.517D-04-0.625D-01 0.106D+01
 Gap=     0.494 Goal=   None    Shift=    0.000
 RMSDP=3.54D-07 MaxDP=1.07D-06 DE=-8.36D-07 OVMax= 6.13D-06

 Initial convergence to 1.0D-05 achieved.  Increase integral accuracy.
 Cycle   5  Pass 1  IDiag  1:
 E= -1.17953383371811     Delta-E=        0.000001355741 Rises=F Damp=F
 DIIS: error= 9.21D-07 at cycle   1 NSaved=   1.
 NSaved= 1 IEnMin= 1 EnMin= -1.17953383371811     IErMin= 1 ErrMin= 9.21D-07
 ErrMax= 9.21D-07  0.00D+00 EMaxC= 1.00D+00 BMatC= 6.32D-12 BMatP= 6.32D-12
 IDIUse=1 WtCom= 1.00D+00 WtEn= 0.00D+00
 Coeff-Com:  0.100D+01
 Coeff:      0.100D+01
 Gap=     0.494 Goal=   None    Shift=    0.000
 RMSDP=3.54D-07 MaxDP=1.07D-06 DE= 1.36D-06 OVMax= 1.32D-06

 Cycle   6  Pass 1  IDiag  1:
 E= -1.17953383372354     Delta-E=       -0.000000000005 Rises=F Damp=F
 DIIS: error= 1.50D-07 at cycle   2 NSaved=   2.
 NSaved= 2 IEnMin= 2 EnMin= -1.17953383372354     IErMin= 2 ErrMin= 1.50D-07
 ErrMax= 1.50D-07  0.00D+00 EMaxC= 1.00D+00 BMatC= 9.67D-14 BMatP= 6.32D-12
 IDIUse=1 WtCom= 1.00D+00 WtEn= 0.00D+00
 Coeff-Com:  0.839D-01 0.916D+00
 Coeff:      0.839D-01 0.916D+00
 Gap=     0.494 Goal=   None    Shift=    0.000
 RMSDP=2.60D-08 MaxDP=7.97D-08 DE=-5.43D-12 OVMax= 3.51D-07

 Cycle   7  Pass 1  IDiag  1:
 E= -1.17953383372372     Delta-E=        0.000000000000 Rises=F Damp=F
 DIIS: error= 1.74D-08 at cycle   3 NSaved=   3.
 NSaved= 3 IEnMin= 3 EnMin= -1.17953383372372     IErMin= 3 ErrMin= 1.74D-08
 ErrMax= 1.74D-08  0.00D+00 EMaxC= 1.00D+00 BMatC= 1.87D-15 BMatP= 9.67D-14
 IDIUse=1 WtCom= 1.00D+00 WtEn= 0.00D+00
 Coeff-Com: -0.955D-02 0.659D-01 0.944D+00
 Coeff:     -0.955D-02 0.659D-01 0.944D+00
 Gap=     0.494 Goal=   None    Shift=    0.000
 RMSDP=2.04D-09 MaxDP=5.66D-09 DE=-1.75D-13 OVMax= 3.20D-08

 SCF Done:  E(RB3LYP) =  -1.17953383372     A.U. after    7 cycles
            NFock=  7  Conv=0.20D-08     -V/T= 2.0314
 KE= 1.143647022011D+00 PE=-3.652399442503D+00 EE= 6.109643795878D-01
 Leave Link  502 at Fri Mar 22 11:17:42 2019, MaxMem=   196608000 cpu:        15.9
 (Enter /cm/shared/c3ddb/gaussian/09.d01/g09/l508.exe)
 QCSCF skips out because SCF is already converged.
 Leave Link  508 at Fri Mar 22 11:17:42 2019, MaxMem=   196608000 cpu:         0.0
 (Enter /cm/shared/c3ddb/gaussian/09.d01/g09/l701.exe)
 Compute integral first derivatives.
 ... and contract with generalized density number  0.
 Leave Link  701 at Fri Mar 22 11:17:43 2019, MaxMem=   196608000 cpu:         3.3
 (Enter /cm/shared/c3ddb/gaussian/09.d01/g09/l702.exe)
 L702 exits ... SP integral derivatives will be done elsewhere.
 Leave Link  702 at Fri Mar 22 11:17:43 2019, MaxMem=   196608000 cpu:         0.2
 (Enter /cm/shared/c3ddb/gaussian/09.d01/g09/l703.exe)
 Compute integral first derivatives, UseDBF=F ICtDFT=           0.
 Integral derivatives from FoFJK, PRISM(SPDF).
 Calling FoFJK, ICntrl=      2127 FMM=F ISym2X=1 I1Cent= 0 IOpClX= 0 NMat=1 NMatS=1 NMatT=0.
 FoFJK:  IHMeth= 1 ICntrl=    2127 DoSepK=F KAlg= 0 I1Cent=   0 FoldK=F
 IRaf=         0 NMat=   1 IRICut=       1 DoRegI=T DoRafI=F ISym2E= 1.
 FoFCou: FMM=F IPFlag=           0 FMFlag=      100000 FMFlg1=         800
         NFxFlg=           0 DoJE=F BraDBF=F KetDBF=F FulRan=T
         wScrn=  0.000000 ICntrl=    2127 IOpCl=  0 I1Cent=           0 NGrid=           0
         NMat0=    1 NMatS0=      1 NMatT0=    0 NMatD0=    1 NMtDS0=    0 NMtDT0=    0
 Petite list used in FoFCou.
 Leave Link  703 at Fri Mar 22 11:17:43 2019, MaxMem=   196608000 cpu:         2.4
 (Enter /cm/shared/c3ddb/gaussian/09.d01/g09/l716.exe)
 Dipole        =-9.86076132D-32-2.40741243D-35 0.00000000D+00
 ***** Axes restored to original set *****
 -------------------------------------------------------------------
 Center     Atomic                   Forces (Hartrees/Bohr)
 Number     Number              X              Y              Z
 -------------------------------------------------------------------
      1        1          -0.005347111    0.000000000    0.000000000
      2        1           0.005347111    0.000000000    0.000000000
 -------------------------------------------------------------------
 Cartesian Forces:  Max     0.005347111 RMS     0.003087156
 Leave Link  716 at Fri Mar 22 11:17:43 2019, MaxMem=   196608000 cpu:         0.2
 (Enter /cm/shared/c3ddb/gaussian/09.d01/g09/l103.exe)

 GradGradGradGradGradGradGradGradGradGradGradGradGradGradGradGradGradGrad
 Berny optimization.
 Using GEDIIS/GDIIS optimizer.
 Red2BG is reusing G-inverse.
 Internal  Forces:  Max     0.005347111 RMS     0.005347111
 Search for a local minimum.
 Step number   3 out of a maximum of   20
 All quantities printed in internal units (Hartrees-Bohrs-Radians)
 RMS Force = .53471D-02 SwitMx=.10000D-02 MixMth= 1
 Mixed Optimization -- RFO/linear search
 Update second derivatives using D2CorX and points    2    3
 DE= -5.11D-03 DEPred=-7.70D-03 R= 6.64D-01
 TightC=F SS=  1.41D+00  RLast= 1.97D-01 DXNew= 8.4853D-01 5.9238D-01
 Trust test= 6.64D-01 RLast= 1.97D-01 DXMaxT set to 5.92D-01
 The second derivative matrix:
                          R1
           R1           0.28456
 ITU=  1  1
 Use linear search instead of GDIIS.
     Eigenvalues ---    0.28456
 RFO step:  Lambda= 0.00000000D+00 EMin= 2.84559253D-01
 Quartic linear search produced a step of -0.07182.
 Iteration  1 RMS(Cart)=  0.01002760 RMS(Int)=  0.00000000
 Iteration  2 RMS(Cart)=  0.00000000 RMS(Int)=  0.00000000
 ITry= 1 IFail=0 DXMaxC= 7.09D-03 DCOld= 1.00D+10 DXMaxT= 5.92D-01 DXLimC= 3.00D+00 Rises=F
 ClnCor:  largest displacement from symmetrization is 6.94D-18 for atom     2.
 Variable       Old X    -DE/DX   Delta X   Delta X   Delta X     New X
                                 (Linear)    (Quad)   (Total)
    R1        1.39226   0.00535   0.01418   0.00000   0.01418   1.40645
         Item               Value     Threshold  Converged?
 Maximum Force            0.005347     0.000450     NO 
 RMS     Force            0.005347     0.000300     NO 
 Maximum Displacement     0.007091     0.001800     NO 
 RMS     Displacement     0.010028     0.001200     NO 
 Predicted change in Energy=-4.721506D-05
 Lowest energy point so far.  Saving SCF results.
 GradGradGradGradGradGradGradGradGradGradGradGradGradGradGradGradGradGrad

 Leave Link  103 at Fri Mar 22 11:17:44 2019, MaxMem=   196608000 cpu:         1.8
 (Enter /cm/shared/c3ddb/gaussian/09.d01/g09/l202.exe)
                          Input orientation:                          
 ---------------------------------------------------------------------
 Center     Atomic      Atomic             Coordinates (Angstroms)
 Number     Number       Type             X           Y           Z
 ---------------------------------------------------------------------
      1          1           0        1.085613    0.086341    0.027562
      2          1           0        1.829873    0.086341    0.027562
 ---------------------------------------------------------------------
 Stoichiometry    H2
 Framework group  D*H[C*(H.H)]
 Deg. of freedom     1
 Full point group                 D*H     NOp   8
 RotChk:  IX=0 Diff= 8.90D-17
 Largest Abelian subgroup         D2H     NOp   8
 Largest concise Abelian subgroup C2      NOp   2
                         Standard orientation:                         
 ---------------------------------------------------------------------
 Center     Atomic      Atomic             Coordinates (Angstroms)
 Number     Number       Type             X           Y           Z
 ---------------------------------------------------------------------
      1          1           0        0.000000    0.000000    0.372130
      2          1           0        0.000000    0.000000   -0.372130
 ---------------------------------------------------------------------
 Rotational constants (GHZ):      0.0000000   1810.5633645   1810.5633645
 Leave Link  202 at Fri Mar 22 11:17:44 2019, MaxMem=   196608000 cpu:         0.4
 (Enter /cm/shared/c3ddb/gaussian/09.d01/g09/l301.exe)
 Standard basis: 6-311G(2d,d,p) (5D, 7F)
 Ernie: Thresh=  0.10000D-02 Tol=  0.10000D-05 Strict=F.
 There are     4 symmetry adapted cartesian basis functions of AG  symmetry.
 There are     0 symmetry adapted cartesian basis functions of B1G symmetry.
 There are     1 symmetry adapted cartesian basis functions of B2G symmetry.
 There are     1 symmetry adapted cartesian basis functions of B3G symmetry.
 There are     0 symmetry adapted cartesian basis functions of AU  symmetry.
 There are     4 symmetry adapted cartesian basis functions of B1U symmetry.
 There are     1 symmetry adapted cartesian basis functions of B2U symmetry.
 There are     1 symmetry adapted cartesian basis functions of B3U symmetry.
 There are     4 symmetry adapted basis functions of AG  symmetry.
 There are     0 symmetry adapted basis functions of B1G symmetry.
 There are     1 symmetry adapted basis functions of B2G symmetry.
 There are     1 symmetry adapted basis functions of B3G symmetry.
 There are     0 symmetry adapted basis functions of AU  symmetry.
 There are     4 symmetry adapted basis functions of B1U symmetry.
 There are     1 symmetry adapted basis functions of B2U symmetry.
 There are     1 symmetry adapted basis functions of B3U symmetry.
    12 basis functions,    16 primitive gaussians,    12 cartesian basis functions
     1 alpha electrons        1 beta electrons
       nuclear repulsion energy         0.7110120663 Hartrees.
 IExCor=  402 DFT=T Ex+Corr=B3LYP ExCW=0 ScaHFX=  0.200000
 ScaDFX=  0.800000  0.720000  1.000000  0.810000 ScalE2=  1.000000  1.000000
 IRadAn=      0 IRanWt=     -1 IRanGd=            0 ICorTp=0 IEmpDi=  4
 NAtoms=    2 NActive=    2 NUniq=    1 SFac= 4.00D+00 NAtFMM=   60 NAOKFM=F Big=F
 Integral buffers will be    131072 words long.
 Raffenetti 2 integral format.
 Two-electron integral symmetry is turned on.
 Leave Link  301 at Fri Mar 22 11:17:44 2019, MaxMem=   196608000 cpu:         0.5
 (Enter /cm/shared/c3ddb/gaussian/09.d01/g09/l302.exe)
 NPDir=0 NMtPBC=     1 NCelOv=     1 NCel=       1 NClECP=     1 NCelD=      1
         NCelK=      1 NCelE2=     1 NClLst=     1 CellRange=     0.0.
 One-electron integrals computed using PRISM.
 One-electron integral symmetry used in STVInt
 NBasis=    12 RedAO= T EigKep=  2.36D-02  NBF=     4     0     1     1     0     4     1     1
 NBsUse=    12 1.00D-06 EigRej= -1.00D+00 NBFU=     4     0     1     1     0     4     1     1
 Precomputing XC quadrature grid using
 IXCGrd= 4 IRadAn=           0 IRanWt=          -1 IRanGd=           0 AccXCQ= 0.00D+00.
 Generated NRdTot=       0 NPtTot=           0 NUsed=           0 NTot=          32
 NSgBfM=    12    12    12    12    12 MxSgAt=     2 MxSgA2=     2.
 Leave Link  302 at Fri Mar 22 11:17:45 2019, MaxMem=   196608000 cpu:         4.3
 (Enter /cm/shared/c3ddb/gaussian/09.d01/g09/l303.exe)
 DipDrv:  MaxL=1.
 Leave Link  303 at Fri Mar 22 11:17:45 2019, MaxMem=   196608000 cpu:         1.1
 (Enter /cm/shared/c3ddb/gaussian/09.d01/g09/l401.exe)
 Initial guess from the checkpoint file:  "check.chk"
 B after Tr=     0.000000    0.000000    0.000000
         Rot=    1.000000    0.000000    0.000000    0.000000 Ang=   0.00 deg.
 Guess basis will be translated and rotated to current coordinates.
 JPrj=2 DoOrth=T DoCkMO=T.
 Initial guess orbital symmetries:
       Occupied  (SGG)
       Virtual   (SGG) (SGG) (SGG) (PIG) (PIG) (SGU) (SGU) (SGU)
                 (SGU) (PIU) (PIU)
 The electronic state of the initial guess is 1-SGG.
 Leave Link  401 at Fri Mar 22 11:17:46 2019, MaxMem=   196608000 cpu:         5.8
 (Enter /cm/shared/c3ddb/gaussian/09.d01/g09/l502.exe)
 Closed shell SCF:
 Using DIIS extrapolation, IDIIS=  1040.
 Integral symmetry usage will be decided dynamically.
 Keep R1 ints in memory in symmetry-blocked form, NReq=870370.
 IVT=        7679 IEndB=        7679 NGot=   196608000 MDV=   196598885
 LenX=   196598885 LenY=   196598003
 Requested convergence on RMS density matrix=1.00D-08 within  64 cycles.
 Requested convergence on MAX density matrix=1.00D-06.
 Requested convergence on             energy=1.00D-06.
 No special actions if energy rises.
 FoFCou: FMM=F IPFlag=           0 FMFlag=           0 FMFlg1=           0
         NFxFlg=           0 DoJE=F BraDBF=F KetDBF=F FulRan=T
         wScrn=  0.000000 ICntrl=     600 IOpCl=  0 I1Cent=           0 NGrid=           0
         NMat0=    1 NMatS0=     78 NMatT0=    0 NMatD0=    1 NMtDS0=    0 NMtDT0=    0
 Petite list used in FoFCou.

 Cycle   1  Pass 1  IDiag  1:
 E= -1.17956292094242    
 DIIS: error= 8.19D-04 at cycle   1 NSaved=   1.
 NSaved= 1 IEnMin= 1 EnMin= -1.17956292094242     IErMin= 1 ErrMin= 8.19D-04
 ErrMax= 8.19D-04  0.00D+00 EMaxC= 1.00D-01 BMatC= 7.44D-06 BMatP= 7.44D-06
 IDIUse=3 WtCom= 9.92D-01 WtEn= 8.19D-03
 Coeff-Com:  0.100D+01
 Coeff-En:   0.100D+01
 Coeff:      0.100D+01
 Gap=     0.909 Goal=   None    Shift=    0.000
 RMSDP=1.41D-04 MaxDP=4.58D-04              OVMax= 2.16D-03

 Cycle   2  Pass 1  IDiag  1:
 E= -1.17957069831655     Delta-E=       -0.000007777374 Rises=F Damp=F
 DIIS: error= 2.08D-04 at cycle   2 NSaved=   2.
 NSaved= 2 IEnMin= 2 EnMin= -1.17957069831655     IErMin= 2 ErrMin= 2.08D-04
 ErrMax= 2.08D-04  0.00D+00 EMaxC= 1.00D-01 BMatC= 1.90D-07 BMatP= 7.44D-06
 IDIUse=3 WtCom= 9.98D-01 WtEn= 2.08D-03
 Coeff-Com:  0.119D+00 0.881D+00
 Coeff-En:   0.000D+00 0.100D+01
 Coeff:      0.119D+00 0.881D+00
 Gap=     0.491 Goal=   None    Shift=    0.000
 RMSDP=3.14D-05 MaxDP=8.77D-05 DE=-7.78D-06 OVMax= 4.44D-04

 Cycle   3  Pass 1  IDiag  1:
 E= -1.17957101621947     Delta-E=       -0.000000317903 Rises=F Damp=F
 DIIS: error= 1.38D-05 at cycle   3 NSaved=   3.
 NSaved= 3 IEnMin= 3 EnMin= -1.17957101621947     IErMin= 3 ErrMin= 1.38D-05
 ErrMax= 1.38D-05  0.00D+00 EMaxC= 1.00D-01 BMatC= 1.37D-09 BMatP= 1.90D-07
 IDIUse=1 WtCom= 1.00D+00 WtEn= 0.00D+00
 Coeff-Com: -0.952D-02 0.278D-01 0.982D+00
 Coeff:     -0.952D-02 0.278D-01 0.982D+00
 Gap=     0.491 Goal=   None    Shift=    0.000
 RMSDP=1.85D-06 MaxDP=5.11D-06 DE=-3.18D-07 OVMax= 2.77D-05

 Cycle   4  Pass 1  IDiag  1:
 E= -1.17957101799781     Delta-E=       -0.000000001778 Rises=F Damp=F
 DIIS: error= 3.50D-09 at cycle   4 NSaved=   4.
 NSaved= 4 IEnMin= 4 EnMin= -1.17957101799781     IErMin= 4 ErrMin= 3.50D-09
 ErrMax= 3.50D-09  0.00D+00 EMaxC= 1.00D-01 BMatC= 5.54D-17 BMatP= 1.37D-09
 IDIUse=1 WtCom= 1.00D+00 WtEn= 0.00D+00
 Coeff-Com:  0.373D-03-0.111D-02-0.386D-01 0.104D+01
 Coeff:      0.373D-03-0.111D-02-0.386D-01 0.104D+01
 Gap=     0.491 Goal=   None    Shift=    0.000
 RMSDP=2.52D-10 MaxDP=5.35D-10 DE=-1.78D-09 OVMax= 4.73D-09

 SCF Done:  E(RB3LYP) =  -1.17957101800     A.U. after    4 cycles
            NFock=  4  Conv=0.25D-09     -V/T= 2.0380
 KE= 1.136426118817D+00 PE=-3.635289185604D+00 EE= 6.082799824845D-01
 Leave Link  502 at Fri Mar 22 11:17:47 2019, MaxMem=   196608000 cpu:         8.2
 (Enter /cm/shared/c3ddb/gaussian/09.d01/g09/l508.exe)
 QCSCF skips out because SCF is already converged.
 Leave Link  508 at Fri Mar 22 11:17:47 2019, MaxMem=   196608000 cpu:         0.0
 (Enter /cm/shared/c3ddb/gaussian/09.d01/g09/l701.exe)
 Compute integral first derivatives.
 ... and contract with generalized density number  0.
 Leave Link  701 at Fri Mar 22 11:17:48 2019, MaxMem=   196608000 cpu:         3.4
 (Enter /cm/shared/c3ddb/gaussian/09.d01/g09/l702.exe)
 L702 exits ... SP integral derivatives will be done elsewhere.
 Leave Link  702 at Fri Mar 22 11:17:48 2019, MaxMem=   196608000 cpu:         0.2
 (Enter /cm/shared/c3ddb/gaussian/09.d01/g09/l703.exe)
 Compute integral first derivatives, UseDBF=F ICtDFT=           0.
 Integral derivatives from FoFJK, PRISM(SPDF).
 Calling FoFJK, ICntrl=      2127 FMM=F ISym2X=1 I1Cent= 0 IOpClX= 0 NMat=1 NMatS=1 NMatT=0.
 FoFJK:  IHMeth= 1 ICntrl=    2127 DoSepK=F KAlg= 0 I1Cent=   0 FoldK=F
 IRaf=         0 NMat=   1 IRICut=       1 DoRegI=T DoRafI=F ISym2E= 1.
 FoFCou: FMM=F IPFlag=           0 FMFlag=      100000 FMFlg1=         800
         NFxFlg=           0 DoJE=F BraDBF=F KetDBF=F FulRan=T
         wScrn=  0.000000 ICntrl=    2127 IOpCl=  0 I1Cent=           0 NGrid=           0
         NMat0=    1 NMatS0=      1 NMatT0=    0 NMatD0=    1 NMtDS0=    0 NMtDT0=    0
 Petite list used in FoFCou.
 Leave Link  703 at Fri Mar 22 11:17:48 2019, MaxMem=   196608000 cpu:         3.0
 (Enter /cm/shared/c3ddb/gaussian/09.d01/g09/l716.exe)
 Dipole        =-4.93038066D-32 9.62964972D-35 0.00000000D+00
 ***** Axes restored to original set *****
 -------------------------------------------------------------------
 Center     Atomic                   Forces (Hartrees/Bohr)
 Number     Number              X              Y              Z
 -------------------------------------------------------------------
      1        1           0.000059821    0.000000000    0.000000000
      2        1          -0.000059821    0.000000000    0.000000000
 -------------------------------------------------------------------
 Cartesian Forces:  Max     0.000059821 RMS     0.000034538
 Leave Link  716 at Fri Mar 22 11:17:49 2019, MaxMem=   196608000 cpu:         0.2
 (Enter /cm/shared/c3ddb/gaussian/09.d01/g09/l103.exe)

 GradGradGradGradGradGradGradGradGradGradGradGradGradGradGradGradGradGrad
 Berny optimization.
 Using GEDIIS/GDIIS optimizer.
 Red2BG is reusing G-inverse.
 Internal  Forces:  Max     0.000059821 RMS     0.000059821
 Search for a local minimum.
 Step number   4 out of a maximum of   20
 All quantities printed in internal units (Hartrees-Bohrs-Radians)
 RMS Force = .59821D-04 SwitMx=.10000D-02 MixMth= 2
 Mixed Optimization -- En-DIIS/RFO-DIIS
 Update second derivatives using D2CorX and points    3    4
 DE= -3.72D-05 DEPred=-4.72D-05 R= 7.88D-01
 TightC=F SS=  1.41D+00  RLast= 1.42D-02 DXNew= 9.9627D-01 4.2543D-02
 Trust test= 7.88D-01 RLast= 1.42D-02 DXMaxT set to 5.92D-01
 The second derivative matrix:
                          R1
           R1           0.38128
 ITU=  1  1
 Use linear search instead of GDIIS.
     Eigenvalues ---    0.38128
 RFO step:  Lambda= 0.00000000D+00 EMin= 3.81275684D-01
 Quartic linear search produced a step of -0.01133.
 Iteration  1 RMS(Cart)=  0.00011362 RMS(Int)=  0.00000000
 Iteration  2 RMS(Cart)=  0.00000000 RMS(Int)=  0.00000000
 ITry= 1 IFail=0 DXMaxC= 8.03D-05 DCOld= 1.00D+10 DXMaxT= 5.92D-01 DXLimC= 3.00D+00 Rises=F
 ClnCor:  largest displacement from symmetrization is 6.94D-18 for atom     1.
 Variable       Old X    -DE/DX   Delta X   Delta X   Delta X     New X
                                 (Linear)    (Quad)   (Total)
    R1        1.40645  -0.00006  -0.00016   0.00000  -0.00016   1.40629
         Item               Value     Threshold  Converged?
 Maximum Force            0.000060     0.000450     YES
 RMS     Force            0.000060     0.000300     YES
 Maximum Displacement     0.000080     0.001800     YES
 RMS     Displacement     0.000114     0.001200     YES
 Predicted change in Energy=-4.690124D-09
 Optimization completed.
    -- Stationary point found.
                           ----------------------------
                           !   Optimized Parameters   !
                           ! (Angstroms and Degrees)  !
 --------------------------                            --------------------------
 ! Name  Definition              Value          Derivative Info.                !
 --------------------------------------------------------------------------------
 ! R1    R(1,2)                  0.7443         -DE/DX =   -0.0001              !
 --------------------------------------------------------------------------------
 Lowest energy point so far.  Saving SCF results.
 GradGradGradGradGradGradGradGradGradGradGradGradGradGradGradGradGradGrad

 Largest change from initial coordinates is atom    1       0.128 Angstoms.
 Leave Link  103 at Fri Mar 22 11:17:49 2019, MaxMem=   196608000 cpu:         1.6
 (Enter /cm/shared/c3ddb/gaussian/09.d01/g09/l202.exe)
                          Input orientation:                          
 ---------------------------------------------------------------------
 Center     Atomic      Atomic             Coordinates (Angstroms)
 Number     Number       Type             X           Y           Z
 ---------------------------------------------------------------------
      1          1           0        1.085613    0.086341    0.027562
      2          1           0        1.829873    0.086341    0.027562
 ---------------------------------------------------------------------
 Stoichiometry    H2
 Framework group  D*H[C*(H.H)]
 Deg. of freedom     1
 Full point group                 D*H     NOp   8
 RotChk:  IX=0 Diff= 9.07D-17
 Largest Abelian subgroup         D2H     NOp   8
 Largest concise Abelian subgroup C2      NOp   2
                         Standard orientation:                         
 ---------------------------------------------------------------------
 Center     Atomic      Atomic             Coordinates (Angstroms)
 Number     Number       Type             X           Y           Z
 ---------------------------------------------------------------------
      1          1           0        0.000000    0.000000    0.372130
      2          1           0        0.000000    0.000000   -0.372130
 ---------------------------------------------------------------------
 Rotational constants (GHZ):      0.0000000   1810.5633645   1810.5633645
 Leave Link  202 at Fri Mar 22 11:17:49 2019, MaxMem=   196608000 cpu:         0.5
 (Enter /cm/shared/c3ddb/gaussian/09.d01/g09/l601.exe)
 Copying SCF densities to generalized density rwf, IOpCl= 0 IROHF=0.

 **********************************************************************

            Population analysis using the SCF density.

 **********************************************************************

 Orbital symmetries:
       Occupied  (SGG)
       Virtual   (SGU) (SGG) (SGU) (PIU) (PIU) (SGG) (PIG) (PIG)
                 (SGU) (SGG) (SGU)
 The electronic state is 1-SGG.
 Alpha  occ. eigenvalues --   -0.43392
 Alpha virt. eigenvalues --    0.05737   0.19695   0.46979   1.08461   1.08461
 Alpha virt. eigenvalues --    1.55103   1.82666   1.82666   1.94597   2.37713
 Alpha virt. eigenvalues --    3.31053
          Condensed to atoms (all electrons):
               1          2
     1  H    0.584884   0.415116
     2  H    0.415116   0.584884
 Mulliken charges:
               1
     1  H    0.000000
     2  H    0.000000
 Sum of Mulliken charges =   0.00000
 Mulliken charges with hydrogens summed into heavy atoms:
               1
 Electronic spatial extent (au):  <R**2>=              5.2707
 Charge=              0.0000 electrons
 Dipole moment (field-independent basis, Debye):
    X=              0.0000    Y=              0.0000    Z=              0.0000  Tot=              0.0000
 Quadrupole moment (field-independent basis, Debye-Ang):
   XX=             -2.1053   YY=             -2.1053   ZZ=             -1.5483
   XY=              0.0000   XZ=              0.0000   YZ=              0.0000
 Traceless Quadrupole moment (field-independent basis, Debye-Ang):
   XX=             -0.1857   YY=             -0.1857   ZZ=              0.3713
   XY=              0.0000   XZ=              0.0000   YZ=              0.0000
 Octapole moment (field-independent basis, Debye-Ang**2):
  XXX=              0.0000  YYY=              0.0000  ZZZ=              0.0000  XYY=              0.0000
  XXY=              0.0000  XXZ=              0.0000  XZZ=              0.0000  YZZ=              0.0000
  YYZ=              0.0000  XYZ=              0.0000
 Hexadecapole moment (field-independent basis, Debye-Ang**3):
 XXXX=             -2.1808 YYYY=             -2.1808 ZZZZ=             -3.0749 XXXY=              0.0000
 XXXZ=              0.0000 YYYX=              0.0000 YYYZ=              0.0000 ZZZX=              0.0000
 ZZZY=              0.0000 XXYY=             -0.7269 XXZZ=             -0.8923 YYZZ=             -0.8923
 XXYZ=              0.0000 YYXZ=              0.0000 ZZXY=              0.0000
 N-N= 7.110120663046D-01 E-N=-3.635289188828D+00  KE= 1.136426118817D+00
 Symmetry AG   KE= 1.136426118817D+00
 Symmetry B1G  KE= 0.000000000000D+00
 Symmetry B2G  KE= 3.012514953802D-34
 Symmetry B3G  KE= 3.012514953802D-34
 Symmetry AU   KE= 0.000000000000D+00
 Symmetry B1U  KE= 4.294745671461D-32
 Symmetry B2U  KE= 6.268777295695D-35
 Symmetry B3U  KE= 6.268777295695D-35
 No NMR shielding tensors so no spin-rotation constants.
 Leave Link  601 at Fri Mar 22 11:17:49 2019, MaxMem=   196608000 cpu:         3.2
 (Enter /cm/shared/c3ddb/gaussian/09.d01/g09/l9999.exe)

 Test job not archived.
 1\1\GINC-NODE084\FOpt\RB3LYP\6-311G(2d,d,p)\H2\DUMINDA\22-Mar-2019\0\\
 #P opt=(calcfc, noeigentest) b3lyp/cbsb7 scf=xqc iop(2/9=2000)\\name\\
 0,1\H,1.0856134444,0.08634062,0.02756162\H,1.8298725556,0.08634062,0.0
 2756162\\Version=AS64L-G09RevD.01\State=1-SGG\HF=-1.179571\RMSD=2.516e
 -10\RMSF=3.454e-05\Dipole=0.,0.,0.\Quadrupole=0.2760799,-0.13804,-0.13
 804,0.,0.,0.\PG=D*H [C*(H1.H1)]\\@


 IT IS WELL TO REMEMBER THAT MAN IS A PART OF NATURE AND THAT HIS WORKS,
 WHATEVER THEY MAY BE, ARE NO MORE "UNNATURAL" THAN 
 THE FLIGHT OF AN EAGLE OR THE PASSAGE OF A TORNADO.

                                    -- CHARLES MCCARRY IN "THE GREAT SOUTHWEST"
 Job cpu time:       0 days  0 hours  3 minutes  7.3 seconds.
 File lengths (MBytes):  RWF=      5 Int=      0 D2E=      0 Chk=      1 Scr=      1
 Normal termination of Gaussian 09 at Fri Mar 22 11:17:50 2019.
