 Entering Gaussian System, Link 0=g09
 Initial command:
 /cm/shared/c3ddb/gaussian/09.d01/g09/l1.exe "/scratch/users/duminda/g09/a1683-7322573/Gau-64745.inp" -scrdir="/scratch/users/duminda/g09/a1683-7322573/"
 Entering Link 1 = /cm/shared/c3ddb/gaussian/09.d01/g09/l1.exe PID=     64746.
  
 Copyright (c) 1988,1990,1992,1993,1995,1998,2003,2009,2013,
            Gaussian, Inc.  All Rights Reserved.
  
 This is part of the Gaussian(R) 09 program.  It is based on
 the Gaussian(R) 03 system (copyright 2003, Gaussian, Inc.),
 the Gaussian(R) 98 system (copyright 1998, Gaussian, Inc.),
 the Gaussian(R) 94 system (copyright 1995, Gaussian, Inc.),
 the Gaussian 92(TM) system (copyright 1992, Gaussian, Inc.),
 the Gaussian 90(TM) system (copyright 1990, Gaussian, Inc.),
 the Gaussian 88(TM) system (copyright 1988, Gaussian, Inc.),
 the Gaussian 86(TM) system (copyright 1986, Carnegie Mellon
 University), and the Gaussian 82(TM) system (copyright 1983,
 Carnegie Mellon University). Gaussian is a federally registered
 trademark of Gaussian, Inc.
  
 This software contains proprietary and confidential information,
 including trade secrets, belonging to Gaussian, Inc.
  
 This software is provided under written license and may be
 used, copied, transmitted, or stored only in accord with that
 written license.
  
 The following legend is applicable only to US Government
 contracts under FAR:
  
                    RESTRICTED RIGHTS LEGEND
  
 Use, reproduction and disclosure by the US Government is
 subject to restrictions as set forth in subparagraphs (a)
 and (c) of the Commercial Computer Software - Restricted
 Rights clause in FAR 52.227-19.
  
 Gaussian, Inc.
 340 Quinnipiac St., Bldg. 40, Wallingford CT 06492
  
  
 ---------------------------------------------------------------
 Warning -- This program may not be used in any manner that
 competes with the business of Gaussian, Inc. or will provide
 assistance to any competitor of Gaussian, Inc.  The licensee
 of this program is prohibited from giving any competitor of
 Gaussian, Inc. access to this program.  By using this program,
 the user acknowledges that Gaussian, Inc. is engaged in the
 business of creating and licensing software in the field of
 computational chemistry and represents and warrants to the
 licensee that it is not a competitor of Gaussian, Inc. and that
 it will not use this program in any manner prohibited above.
 ---------------------------------------------------------------
  

 Cite this work as:
 Gaussian 09, Revision D.01,
 M. J. Frisch, G. W. Trucks, H. B. Schlegel, G. E. Scuseria, 
 M. A. Robb, J. R. Cheeseman, G. Scalmani, V. Barone, B. Mennucci, 
 G. A. Petersson, H. Nakatsuji, M. Caricato, X. Li, H. P. Hratchian, 
 A. F. Izmaylov, J. Bloino, G. Zheng, J. L. Sonnenberg, M. Hada, 
 M. Ehara, K. Toyota, R. Fukuda, J. Hasegawa, M. Ishida, T. Nakajima, 
 Y. Honda, O. Kitao, H. Nakai, T. Vreven, J. A. Montgomery, Jr., 
 J. E. Peralta, F. Ogliaro, M. Bearpark, J. J. Heyd, E. Brothers, 
 K. N. Kudin, V. N. Staroverov, T. Keith, R. Kobayashi, J. Normand, 
 K. Raghavachari, A. Rendell, J. C. Burant, S. S. Iyengar, J. Tomasi, 
 M. Cossi, N. Rega, J. M. Millam, M. Klene, J. E. Knox, J. B. Cross, 
 V. Bakken, C. Adamo, J. Jaramillo, R. Gomperts, R. E. Stratmann, 
 O. Yazyev, A. J. Austin, R. Cammi, C. Pomelli, J. W. Ochterski, 
 R. L. Martin, K. Morokuma, V. G. Zakrzewski, G. A. Voth, 
 P. Salvador, J. J. Dannenberg, S. Dapprich, A. D. Daniels, 
 O. Farkas, J. B. Foresman, J. V. Ortiz, J. Cioslowski, 
 and D. J. Fox, Gaussian, Inc., Wallingford CT, 2013.
 
 ******************************************
 Gaussian 09:  AS64L-G09RevD.01 24-Apr-2013
                16-Feb-2019 
 ******************************************
 %chk=check.chk
 %mem=1500mb
 %nproc=8
 Will use up to    8 processors via shared memory.
 --------------------------------
 #P opt=calcfc b97d/6-31g scf=xqc
 --------------------------------
 1/10=4,14=-1,18=20,19=15,26=3,38=1/1,3;
 2/9=110,12=2,17=6,18=5,40=1/2;
 3/5=1,6=6,11=2,16=1,25=1,30=1,71=2,74=-42,140=1/1,2,3;
 4//1;
 5/5=2,8=3,13=1,38=5/2,8;
 8/6=4,10=90,11=11/1;
 11/6=1,8=1,9=11,15=111,16=1/1,2,10;
 10/6=1,13=1/2;
 6/7=2,8=2,9=2,10=2,28=1/1;
 7/10=1,18=20,25=1/1,2,3,16;
 1/10=4,14=-1,18=20,19=15,26=3/3(2);
 2/9=110/2;
 99//99;
 2/9=110/2;
 3/5=1,6=6,11=2,16=1,25=1,30=1,71=1,74=-42/1,2,3;
 4/5=5,16=3,69=1/1;
 5/5=2,8=3,13=1,38=5/2,8;
 7//1,2,3,16;
 1/14=-1,18=20,19=15,26=3/3(-5);
 2/9=110/2;
 6/7=2,8=2,9=2,10=2,19=2,28=1/1;
 99/9=1/99;
 Leave Link    1 at Sat Feb 16 13:47:11 2019, MaxMem=   196608000 cpu:         0.5
 (Enter /cm/shared/c3ddb/gaussian/09.d01/g09/l101.exe)
 ----
 name
 ----
 Symbolic Z-matrix:
 Charge =  0 Multiplicity = 1
 N                    -0.65452   0.00045  -0.3013 
 N                     0.65452  -0.00045   0.30129 
 H                    -1.2011   -0.8113    0.00722 
 H                    -1.20235   0.80937   0.01238 
 H                     1.20109   0.81131  -0.00722 
 H                     1.20236  -0.80937  -0.01238 
 
 NAtoms=      6 NQM=        6 NQMF=       0 NMMI=      0 NMMIF=      0
                NMic=       0 NMicF=      0.
                    Isotopes and Nuclear Properties:
 (Nuclear quadrupole moments (NQMom) in fm**2, nuclear magnetic moments (NMagM)
  in nuclear magnetons)

  Atom         1           2           3           4           5           6
 IAtWgt=          14          14           1           1           1           1
 AtmWgt=  14.0030740  14.0030740   1.0078250   1.0078250   1.0078250   1.0078250
 NucSpn=           2           2           1           1           1           1
 AtZEff=   0.0000000   0.0000000   0.0000000   0.0000000   0.0000000   0.0000000
 NQMom=    2.0440000   2.0440000   0.0000000   0.0000000   0.0000000   0.0000000
 NMagM=    0.4037610   0.4037610   2.7928460   2.7928460   2.7928460   2.7928460
 AtZNuc=   7.0000000   7.0000000   1.0000000   1.0000000   1.0000000   1.0000000
 Leave Link  101 at Sat Feb 16 13:47:12 2019, MaxMem=   196608000 cpu:         1.1
 (Enter /cm/shared/c3ddb/gaussian/09.d01/g09/l103.exe)

 GradGradGradGradGradGradGradGradGradGradGradGradGradGradGradGradGradGrad
 Berny optimization.
 Initialization pass.
                           ----------------------------
                           !    Initial Parameters    !
                           ! (Angstroms and Degrees)  !
 --------------------------                            --------------------------
 ! Name  Definition              Value          Derivative Info.                !
 --------------------------------------------------------------------------------
 ! R1    R(1,2)                  1.4411         calculate D2E/DX2 analytically  !
 ! R2    R(1,3)                  1.0261         calculate D2E/DX2 analytically  !
 ! R3    R(1,4)                  1.0261         calculate D2E/DX2 analytically  !
 ! R4    R(2,5)                  1.0261         calculate D2E/DX2 analytically  !
 ! R5    R(2,6)                  1.0261         calculate D2E/DX2 analytically  !
 ! A1    A(2,1,3)              110.9557         calculate D2E/DX2 analytically  !
 ! A2    A(2,1,4)              110.9557         calculate D2E/DX2 analytically  !
 ! A3    A(3,1,4)              104.3213         calculate D2E/DX2 analytically  !
 ! A4    A(1,2,5)              110.9558         calculate D2E/DX2 analytically  !
 ! A5    A(1,2,6)              110.9559         calculate D2E/DX2 analytically  !
 ! A6    A(5,2,6)              104.3217         calculate D2E/DX2 analytically  !
 ! D1    D(3,1,2,5)           -179.9997         calculate D2E/DX2 analytically  !
 ! D2    D(3,1,2,6)             64.5122         calculate D2E/DX2 analytically  !
 ! D3    D(4,1,2,5)            -64.5124         calculate D2E/DX2 analytically  !
 ! D4    D(4,1,2,6)            179.9996         calculate D2E/DX2 analytically  !
 --------------------------------------------------------------------------------
 Trust Radius=3.00D-01 FncErr=1.00D-07 GrdErr=1.00D-06
 Number of steps in this run=     25 maximum allowed number of steps=    100.
 GradGradGradGradGradGradGradGradGradGradGradGradGradGradGradGradGradGrad

 Leave Link  103 at Sat Feb 16 13:47:12 2019, MaxMem=   196608000 cpu:         0.1
 (Enter /cm/shared/c3ddb/gaussian/09.d01/g09/l202.exe)
                          Input orientation:                          
 ---------------------------------------------------------------------
 Center     Atomic      Atomic             Coordinates (Angstroms)
 Number     Number       Type             X           Y           Z
 ---------------------------------------------------------------------
      1          7           0       -0.654521    0.000451   -0.301297
      2          7           0        0.654522   -0.000450    0.301292
      3          1           0       -1.201095   -0.811304    0.007223
      4          1           0       -1.202354    0.809371    0.012384
      5          1           0        1.201093    0.811305   -0.007223
      6          1           0        1.202355   -0.809372   -0.012380
 ---------------------------------------------------------------------
                    Distance matrix (angstroms):
                    1          2          3          4          5
     1  N    0.000000
     2  N    1.441079   0.000000
     3  H    1.026096   2.046284   0.000000
     4  H    1.026094   2.046282   1.620684   0.000000
     5  H    2.046282   1.026094   2.898893   2.403528   0.000000
     6  H    2.046283   1.026093   2.403531   2.898891   1.620686
                    6
     6  H    0.000000
 Stoichiometry    H4N2
 Framework group  C1[X(H4N2)]
 Deg. of freedom    12
 Full point group                 C1      NOp   1
 Largest Abelian subgroup         C1      NOp   1
 Largest concise Abelian subgroup C1      NOp   1
                         Standard orientation:                         
 ---------------------------------------------------------------------
 Center     Atomic      Atomic             Coordinates (Angstroms)
 Number     Number       Type             X           Y           Z
 ---------------------------------------------------------------------
      1          7           0        0.707171    0.000000   -0.138152
      2          7           0       -0.707171    0.000000    0.138150
      3          1           0        1.165398    0.810343    0.293410
      4          1           0        1.165396   -0.810341    0.293412
      5          1           0       -1.165396   -0.810344   -0.293406
      6          1           0       -1.165398    0.810343   -0.293406
 ---------------------------------------------------------------------
 Rotational constants (GHZ):    147.3338925     24.8193314     22.7376775
 Leave Link  202 at Sat Feb 16 13:47:12 2019, MaxMem=   196608000 cpu:         0.3
 (Enter /cm/shared/c3ddb/gaussian/09.d01/g09/l301.exe)
 Standard basis: 6-31G (6D, 7F)
 Ernie: Thresh=  0.10000D-02 Tol=  0.10000D-05 Strict=F.
 There are    26 symmetry adapted cartesian basis functions of A   symmetry.
 There are    26 symmetry adapted basis functions of A   symmetry.
    26 basis functions,    60 primitive gaussians,    26 cartesian basis functions
     9 alpha electrons        9 beta electrons
       nuclear repulsion energy        41.1327653465 Hartrees.
 IExCor= 3630 DFT=T Ex+Corr=B97D ExCW=0 ScaHFX=  0.000000
 ScaDFX=  1.000000  1.000000  1.000000  1.000000 ScalE2=  1.000000  1.000000
 IRadAn=      0 IRanWt=     -1 IRanGd=            0 ICorTp=0 IEmpDi=121
 NAtoms=    6 NActive=    6 NUniq=    6 SFac= 1.00D+00 NAtFMM=   60 NAOKFM=F Big=F
 Integral buffers will be    131072 words long.
 Raffenetti 2 integral format.
 Two-electron integral symmetry is turned on.
 R6Disp:  Grimme-D2 Dispersion energy=       -0.0016184574 Hartrees.
 Nuclear repulsion after empirical dispersion term =       41.1311468892 Hartrees.
 Leave Link  301 at Sat Feb 16 13:47:12 2019, MaxMem=   196608000 cpu:         1.0
 (Enter /cm/shared/c3ddb/gaussian/09.d01/g09/l302.exe)
 NPDir=0 NMtPBC=     1 NCelOv=     1 NCel=       1 NClECP=     1 NCelD=      1
         NCelK=      1 NCelE2=     1 NClLst=     1 CellRange=     0.0.
 One-electron integrals computed using PRISM.
 NBasis=    26 RedAO= T EigKep=  2.09D-02  NBF=    26
 NBsUse=    26 1.00D-06 EigRej= -1.00D+00 NBFU=    26
 Precomputing XC quadrature grid using
 IXCGrd= 4 IRadAn=           0 IRanWt=          -1 IRanGd=           0 AccXCQ= 0.00D+00.
 Generated NRdTot=       0 NPtTot=           0 NUsed=           0 NTot=          32
 NSgBfM=    26    26    26    26    26 MxSgAt=     6 MxSgA2=     6.
 Leave Link  302 at Sat Feb 16 13:47:12 2019, MaxMem=   196608000 cpu:         2.6
 (Enter /cm/shared/c3ddb/gaussian/09.d01/g09/l303.exe)
 DipDrv:  MaxL=1.
 Leave Link  303 at Sat Feb 16 13:47:13 2019, MaxMem=   196608000 cpu:         0.5
 (Enter /cm/shared/c3ddb/gaussian/09.d01/g09/l401.exe)
 ExpMin= 1.61D-01 ExpMax= 4.17D+03 ExpMxC= 6.27D+02 IAcc=1 IRadAn=         1 AccDes= 0.00D+00
 Harris functional with IExCor= 3630 and IRadAn=       1 diagonalized for initial guess.
 HarFok:  IExCor= 3630 AccDes= 0.00D+00 IRadAn=         1 IDoV= 1 UseB2=F ITyADJ=14
 ICtDFT=  3500011 ScaDFX=  1.000000  1.000000  1.000000  1.000000
 FoFCou: FMM=F IPFlag=           0 FMFlag=      100000 FMFlg1=           0
         NFxFlg=           0 DoJE=T BraDBF=F KetDBF=T FulRan=T
         wScrn=  0.000000 ICntrl=     500 IOpCl=  0 I1Cent=   200000004 NGrid=           0
         NMat0=    1 NMatS0=      1 NMatT0=    0 NMatD0=    1 NMtDS0=    0 NMtDT0=    0
 Petite list used in FoFCou.
 Harris En= -111.785091273179    
 JPrj=0 DoOrth=F DoCkMO=F.
 Leave Link  401 at Sat Feb 16 13:47:13 2019, MaxMem=   196608000 cpu:         3.6
 (Enter /cm/shared/c3ddb/gaussian/09.d01/g09/l502.exe)
 Closed shell SCF:
 Using DIIS extrapolation, IDIIS=  1040.
 Integral symmetry usage will be decided dynamically.
 Keep J ints in memory in canonical form, NReq=929948.
 IVT=        8386 IEndB=        8386 NGot=   196608000 MDV=   196537839
 LenX=   196537839 LenY=   196536722
 Requested convergence on RMS density matrix=1.00D-08 within  64 cycles.
 Requested convergence on MAX density matrix=1.00D-06.
 Requested convergence on             energy=1.00D-06.
 No special actions if energy rises.
 FoFCou: FMM=F IPFlag=           0 FMFlag=           0 FMFlg1=           0
         NFxFlg=           0 DoJE=F BraDBF=F KetDBF=F FulRan=T
         wScrn=  0.000000 ICntrl=     600 IOpCl=  0 I1Cent=           0 NGrid=           0
         NMat0=    1 NMatS0=    351 NMatT0=    0 NMatD0=    1 NMtDS0=    0 NMtDT0=    0
 Symmetry not used in FoFCou.
 Integral accuracy reduced to 1.0D-05 until final iterations.

 Cycle   1  Pass 0  IDiag  1:
 E= -111.679431650151    
 DIIS: error= 5.29D-02 at cycle   1 NSaved=   1.
 NSaved= 1 IEnMin= 1 EnMin= -111.679431650151     IErMin= 1 ErrMin= 5.29D-02
 ErrMax= 5.29D-02  0.00D+00 EMaxC= 1.00D-01 BMatC= 5.94D-02 BMatP= 5.94D-02
 IDIUse=3 WtCom= 4.71D-01 WtEn= 5.29D-01
 Coeff-Com:  0.100D+01
 Coeff-En:   0.100D+01
 Coeff:      0.100D+01
 Gap=     0.153 Goal=   None    Shift=    0.000
 GapD=    0.153 DampG=1.000 DampE=0.500 DampFc=0.5000 IDamp=-1.
 Damping current iteration by 5.00D-01
 RMSDP=2.24D-02 MaxDP=1.30D-01              OVMax= 1.59D-01

 Cycle   2  Pass 0  IDiag  1:
 E= -111.696009599307     Delta-E=       -0.016577949156 Rises=F Damp=T
 DIIS: error= 1.39D-02 at cycle   2 NSaved=   2.
 NSaved= 2 IEnMin= 2 EnMin= -111.696009599307     IErMin= 2 ErrMin= 1.39D-02
 ErrMax= 1.39D-02  0.00D+00 EMaxC= 1.00D-01 BMatC= 5.59D-03 BMatP= 5.94D-02
 IDIUse=3 WtCom= 8.61D-01 WtEn= 1.39D-01
 Coeff-Com:  0.219D+00 0.781D+00
 Coeff-En:   0.348D+00 0.652D+00
 Coeff:      0.237D+00 0.763D+00
 Gap=     0.172 Goal=   None    Shift=    0.000
 RMSDP=4.86D-03 MaxDP=2.86D-02 DE=-1.66D-02 OVMax= 8.56D-02

 Cycle   3  Pass 0  IDiag  1:
 E= -111.737068469110     Delta-E=       -0.041058869803 Rises=F Damp=F
 DIIS: error= 1.98D-03 at cycle   3 NSaved=   3.
 NSaved= 3 IEnMin= 3 EnMin= -111.737068469110     IErMin= 3 ErrMin= 1.98D-03
 ErrMax= 1.98D-03  0.00D+00 EMaxC= 1.00D-01 BMatC= 7.52D-05 BMatP= 5.59D-03
 IDIUse=3 WtCom= 9.80D-01 WtEn= 1.98D-02
 Coeff-Com:  0.481D-01 0.101D+00 0.851D+00
 Coeff-En:   0.000D+00 0.000D+00 0.100D+01
 Coeff:      0.472D-01 0.987D-01 0.854D+00
 Gap=     0.179 Goal=   None    Shift=    0.000
 RMSDP=8.10D-04 MaxDP=4.55D-03 DE=-4.11D-02 OVMax= 5.83D-03

 Cycle   4  Pass 0  IDiag  1:
 E= -111.737167786295     Delta-E=       -0.000099317186 Rises=F Damp=F
 DIIS: error= 2.76D-04 at cycle   4 NSaved=   4.
 NSaved= 4 IEnMin= 4 EnMin= -111.737167786295     IErMin= 4 ErrMin= 2.76D-04
 ErrMax= 2.76D-04  0.00D+00 EMaxC= 1.00D-01 BMatC= 1.78D-06 BMatP= 7.52D-05
 IDIUse=3 WtCom= 9.97D-01 WtEn= 2.76D-03
 Coeff-Com:  0.522D-02-0.420D-02 0.107D+00 0.892D+00
 Coeff-En:   0.000D+00 0.000D+00 0.000D+00 0.100D+01
 Coeff:      0.521D-02-0.419D-02 0.106D+00 0.893D+00
 Gap=     0.180 Goal=   None    Shift=    0.000
 RMSDP=9.37D-05 MaxDP=6.74D-04 DE=-9.93D-05 OVMax= 6.01D-04

 Cycle   5  Pass 0  IDiag  1:
 E= -111.737169968059     Delta-E=       -0.000002181764 Rises=F Damp=F
 DIIS: error= 1.80D-05 at cycle   5 NSaved=   5.
 NSaved= 5 IEnMin= 5 EnMin= -111.737169968059     IErMin= 5 ErrMin= 1.80D-05
 ErrMax= 1.80D-05  0.00D+00 EMaxC= 1.00D-01 BMatC= 7.13D-09 BMatP= 1.78D-06
 IDIUse=1 WtCom= 1.00D+00 WtEn= 0.00D+00
 Coeff-Com:  0.802D-03-0.137D-02 0.140D-01 0.148D+00 0.839D+00
 Coeff:      0.802D-03-0.137D-02 0.140D-01 0.148D+00 0.839D+00
 Gap=     0.180 Goal=   None    Shift=    0.000
 RMSDP=5.64D-06 MaxDP=3.52D-05 DE=-2.18D-06 OVMax= 4.18D-05

 Initial convergence to 1.0D-05 achieved.  Increase integral accuracy.
 Cycle   6  Pass 1  IDiag  1:
 E= -111.737171310939     Delta-E=       -0.000001342880 Rises=F Damp=F
 DIIS: error= 4.35D-06 at cycle   1 NSaved=   1.
 NSaved= 1 IEnMin= 1 EnMin= -111.737171310939     IErMin= 1 ErrMin= 4.35D-06
 ErrMax= 4.35D-06  0.00D+00 EMaxC= 1.00D-01 BMatC= 6.89D-10 BMatP= 6.89D-10
 IDIUse=1 WtCom= 1.00D+00 WtEn= 0.00D+00
 Coeff-Com:  0.100D+01
 Coeff:      0.100D+01
 Gap=     0.180 Goal=   None    Shift=    0.000
 RMSDP=5.64D-06 MaxDP=3.52D-05 DE=-1.34D-06 OVMax= 1.56D-05

 Cycle   7  Pass 1  IDiag  1:
 E= -111.737171311551     Delta-E=       -0.000000000612 Rises=F Damp=F
 DIIS: error= 4.32D-06 at cycle   2 NSaved=   2.
 NSaved= 2 IEnMin= 2 EnMin= -111.737171311551     IErMin= 2 ErrMin= 4.32D-06
 ErrMax= 4.32D-06  0.00D+00 EMaxC= 1.00D-01 BMatC= 4.14D-10 BMatP= 6.89D-10
 IDIUse=1 WtCom= 1.00D+00 WtEn= 0.00D+00
 Coeff-Com:  0.422D+00 0.578D+00
 Coeff:      0.422D+00 0.578D+00
 Gap=     0.180 Goal=   None    Shift=    0.000
 RMSDP=1.03D-06 MaxDP=6.69D-06 DE=-6.12D-10 OVMax= 6.98D-06

 Cycle   8  Pass 1  IDiag  1:
 E= -111.737171311843     Delta-E=       -0.000000000292 Rises=F Damp=F
 DIIS: error= 2.01D-06 at cycle   3 NSaved=   3.
 NSaved= 3 IEnMin= 3 EnMin= -111.737171311843     IErMin= 3 ErrMin= 2.01D-06
 ErrMax= 2.01D-06  0.00D+00 EMaxC= 1.00D-01 BMatC= 9.58D-11 BMatP= 4.14D-10
 IDIUse=1 WtCom= 1.00D+00 WtEn= 0.00D+00
 Coeff-Com:  0.104D-01 0.326D+00 0.663D+00
 Coeff:      0.104D-01 0.326D+00 0.663D+00
 Gap=     0.180 Goal=   None    Shift=    0.000
 RMSDP=3.54D-07 MaxDP=2.30D-06 DE=-2.92D-10 OVMax= 2.30D-06

 Cycle   9  Pass 1  IDiag  1:
 E= -111.737171311931     Delta-E=       -0.000000000088 Rises=F Damp=F
 DIIS: error= 6.10D-08 at cycle   4 NSaved=   4.
 NSaved= 4 IEnMin= 4 EnMin= -111.737171311931     IErMin= 4 ErrMin= 6.10D-08
 ErrMax= 6.10D-08  0.00D+00 EMaxC= 1.00D-01 BMatC= 7.55D-14 BMatP= 9.58D-11
 IDIUse=1 WtCom= 1.00D+00 WtEn= 0.00D+00
 Coeff-Com:  0.801D-04 0.597D-01 0.125D+00 0.816D+00
 Coeff:      0.801D-04 0.597D-01 0.125D+00 0.816D+00
 Gap=     0.180 Goal=   None    Shift=    0.000
 RMSDP=2.01D-08 MaxDP=1.16D-07 DE=-8.78D-11 OVMax= 1.52D-07

 Cycle  10  Pass 1  IDiag  1:
 E= -111.737171311930     Delta-E=        0.000000000000 Rises=F Damp=F
 DIIS: error= 7.96D-08 at cycle   5 NSaved=   5.
 NSaved= 5 IEnMin= 4 EnMin= -111.737171311931     IErMin= 4 ErrMin= 6.10D-08
 ErrMax= 7.96D-08  0.00D+00 EMaxC= 1.00D-01 BMatC= 8.83D-14 BMatP= 7.55D-14
 IDIUse=1 WtCom= 1.00D+00 WtEn= 0.00D+00
 Coeff-Com: -0.319D-03 0.257D-01 0.540D-01 0.531D+00 0.390D+00
 Coeff:     -0.319D-03 0.257D-01 0.540D-01 0.531D+00 0.390D+00
 Gap=     0.180 Goal=   None    Shift=    0.000
 RMSDP=9.10D-09 MaxDP=6.13D-08 DE= 2.27D-13 OVMax= 8.30D-08

 SCF Done:  E(RB97D) =  -111.737171312     A.U. after   10 cycles
            NFock= 10  Conv=0.91D-08     -V/T= 2.0044
 KE= 1.112519957661D+02 PE=-3.437854377934D+02 EE= 7.966512382624D+01
 Leave Link  502 at Sat Feb 16 13:47:17 2019, MaxMem=   196608000 cpu:        19.3
 (Enter /cm/shared/c3ddb/gaussian/09.d01/g09/l508.exe)
 QCSCF skips out because SCF is already converged.
 Leave Link  508 at Sat Feb 16 13:47:17 2019, MaxMem=   196608000 cpu:         0.0
 (Enter /cm/shared/c3ddb/gaussian/09.d01/g09/l801.exe)
 DoSCS=F DFT=T ScalE2(SS,OS)=  1.000000  1.000000
 Range of M.O.s used for correlation:     1    26
 NBasis=    26 NAE=     9 NBE=     9 NFC=     0 NFV=     0
 NROrb=     26 NOA=     9 NOB=     9 NVA=    17 NVB=    17
 Leave Link  801 at Sat Feb 16 13:47:17 2019, MaxMem=   196608000 cpu:         0.2
 (Enter /cm/shared/c3ddb/gaussian/09.d01/g09/l1101.exe)
 Using compressed storage, NAtomX=     6.
 Will process      7 centers per pass.
 R6Disp: Adding Grimme-D2 dispersion energy 1st derivatives to the gradient.
 Leave Link 1101 at Sat Feb 16 13:47:17 2019, MaxMem=   196608000 cpu:         2.6
 (Enter /cm/shared/c3ddb/gaussian/09.d01/g09/l1102.exe)
 Symmetrizing basis deriv contribution to polar:
 IMax=3 JMax=2 DiffMx= 0.00D+00
 Leave Link 1102 at Sat Feb 16 13:47:18 2019, MaxMem=   196608000 cpu:         0.7
 (Enter /cm/shared/c3ddb/gaussian/09.d01/g09/l1110.exe)
 Forming Gx(P) for the SCF density, NAtomX=     6.
 Integral derivatives from FoFJK, PRISM(SPDF).
 Do as many integral derivatives as possible in FoFJK.
 G2DrvN: MDV=     196607848.
 G2DrvN: will do     7 centers at a time, making    1 passes.
 Calling FoFCou, ICntrl=  3507 FMM=F I1Cent=   0 AccDes= 0.00D+00.
 FoFJK:  IHMeth= 1 ICntrl=    3507 DoSepK=F KAlg= 0 I1Cent=   0 FoldK=F
 IRaf=         0 NMat=   1 IRICut=       1 DoRegI=T DoRafI=F ISym2E= 0.
 FoFCou: FMM=F IPFlag=           0 FMFlag=      100000 FMFlg1=           0
         NFxFlg=           0 DoJE=F BraDBF=F KetDBF=F FulRan=T
         wScrn=  0.000000 ICntrl=    3507 IOpCl=  0 I1Cent=           0 NGrid=           0
         NMat0=    1 NMatS0=      1 NMatT0=    0 NMatD0=    1 NMtDS0=    0 NMtDT0=    0
 Symmetry not used in FoFCou.
 End of G2Drv F.D. properties file   721 does not exist.
 End of G2Drv F.D. properties file   722 does not exist.
 End of G2Drv F.D. properties file   788 does not exist.
 Leave Link 1110 at Sat Feb 16 13:47:19 2019, MaxMem=   196608000 cpu:         7.9
 (Enter /cm/shared/c3ddb/gaussian/09.d01/g09/l1002.exe)
 Minotr:  Closed shell wavefunction.
          IDoAtm=111111
          Direct CPHF calculation.
          Differentiating once with respect to nuclear coordinates.
          Requested convergence is 1.0D-08 RMS, and 1.0D-07 maximum.
          Secondary convergence is 1.0D-12 RMS, and 1.0D-12 maximum.
          NewPWx=T KeepS1=F KeepF1=F KeepIn=T MapXYZ=F SortEE=F KeepMc=T.
          MDV=     196607910 using IRadAn=       2.
 Generate precomputed XC quadrature information.
 Keep J ints in memory in canonical form, NReq=921698.
 FoFCou: FMM=F IPFlag=           0 FMFlag=           0 FMFlg1=           0
         NFxFlg=           0 DoJE=F BraDBF=F KetDBF=F FulRan=T
         wScrn=  0.000000 ICntrl=     600 IOpCl=  0 I1Cent=           0 NGrid=           0
         NMat0=    1 NMatS0=    351 NMatT0=    0 NMatD0=    1 NMtDS0=    0 NMtDT0=    0
 Symmetry not used in FoFCou.
          Solving linear equations simultaneously, MaxMat=       0.
          There are    21 degrees of freedom in the 1st order CPHF.  IDoFFX=6 NUNeed=     0.
     15 vectors produced by pass  0 Test12= 7.29D-16 4.76D-09 XBig12= 1.55D-01 2.27D-01.
 AX will form    15 AO Fock derivatives at one time.
     15 vectors produced by pass  1 Test12= 7.29D-16 4.76D-09 XBig12= 1.16D-02 3.94D-02.
     15 vectors produced by pass  2 Test12= 7.29D-16 4.76D-09 XBig12= 3.13D-04 7.87D-03.
     15 vectors produced by pass  3 Test12= 7.29D-16 4.76D-09 XBig12= 1.32D-06 4.21D-04.
      6 vectors produced by pass  4 Test12= 7.29D-16 4.76D-09 XBig12= 2.39D-10 4.99D-06.
      1 vectors produced by pass  5 Test12= 7.29D-16 4.76D-09 XBig12= 1.77D-15 1.48D-08.
 InvSVY:  IOpt=1 It=  1 EMax= 1.22D-15
 Solved reduced A of dimension    67 with    15 vectors.
 End of Minotr F.D. properties file   721 does not exist.
 End of Minotr F.D. properties file   722 does not exist.
 End of Minotr F.D. properties file   788 does not exist.
 Leave Link 1002 at Sat Feb 16 13:47:22 2019, MaxMem=   196608000 cpu:        17.7
 (Enter /cm/shared/c3ddb/gaussian/09.d01/g09/l601.exe)
 Copying SCF densities to generalized density rwf, IOpCl= 0 IROHF=0.

 **********************************************************************

            Population analysis using the SCF density.

 **********************************************************************

 Orbital symmetries:
       Occupied  (A) (A) (A) (A) (A) (A) (A) (A) (A)
       Virtual   (A) (A) (A) (A) (A) (A) (A) (A) (A) (A) (A) (A)
                 (A) (A) (A) (A) (A)
 The electronic state is 1-A.
 Alpha  occ. eigenvalues --  -14.00255 -14.00248  -0.86586  -0.68652  -0.46271
 Alpha  occ. eigenvalues --   -0.42269  -0.36137  -0.26852  -0.11639
 Alpha virt. eigenvalues --    0.06327   0.06762   0.11334   0.15660   0.18568
 Alpha virt. eigenvalues --    0.63388   0.65108   0.70557   0.71674   0.73152
 Alpha virt. eigenvalues --    0.81765   0.88789   0.90249   0.92102   0.92471
 Alpha virt. eigenvalues --    1.19790   1.41803
          Condensed to atoms (all electrons):
               1          2          3          4          5          6
     1  N    6.886948   0.144943   0.316198   0.316198  -0.042891  -0.042891
     2  N    0.144943   6.886948  -0.042892  -0.042892   0.316199   0.316199
     3  H    0.316198  -0.042892   0.480174  -0.043349   0.005862  -0.005245
     4  H    0.316198  -0.042892  -0.043349   0.480174  -0.005245   0.005862
     5  H   -0.042891   0.316199   0.005862  -0.005245   0.480172  -0.043349
     6  H   -0.042891   0.316199  -0.005245   0.005862  -0.043349   0.480172
 Mulliken charges:
               1
     1  N   -0.578505
     2  N   -0.578506
     3  H    0.289252
     4  H    0.289253
     5  H    0.289253
     6  H    0.289253
 Sum of Mulliken charges =   0.00000
 Mulliken charges with hydrogens summed into heavy atoms:
               1
     1  N    0.000000
     2  N    0.000000
 APT charges:
               1
     1  N   -1.003151
     2  N   -1.003151
     3  H    0.501575
     4  H    0.501575
     5  H    0.501576
     6  H    0.501576
 Sum of APT charges =   0.00000
 APT charges with hydrogens summed into heavy atoms:
               1
     1  N   -0.000001
     2  N    0.000001
 Electronic spatial extent (au):  <R**2>=             83.6737
 Charge=              0.0000 electrons
 Dipole moment (field-independent basis, Debye):
    X=              0.0000    Y=              0.0000    Z=              0.0000  Tot=              0.0000
 Quadrupole moment (field-independent basis, Debye-Ang):
   XX=            -10.9021   YY=            -10.3269   ZZ=            -16.0389
   XY=              0.0000   XZ=              4.0895   YZ=              0.0000
 Traceless Quadrupole moment (field-independent basis, Debye-Ang):
   XX=              1.5205   YY=              2.0957   ZZ=             -3.6163
   XY=              0.0000   XZ=              4.0895   YZ=              0.0000
 Octapole moment (field-independent basis, Debye-Ang**2):
  XXX=              0.0000  YYY=              0.0000  ZZZ=              0.0000  XYY=              0.0000
  XXY=              0.0000  XXZ=              0.0000  XZZ=              0.0000  YZZ=              0.0000
  YYZ=              0.0000  XYZ=              0.0000
 Hexadecapole moment (field-independent basis, Debye-Ang**3):
 XXXX=            -56.6073 YYYY=            -17.1793 ZZZZ=            -17.9063 XXXY=              0.0000
 XXXZ=              6.3193 YYYX=              0.0000 YYYZ=              0.0000 ZZZX=              3.5759
 ZZZY=              0.0000 XXYY=             -9.7197 XXZZ=            -15.0991 YYZZ=             -5.8194
 XXYZ=              0.0000 YYXZ=              2.0422 ZZXY=              0.0000
 N-N= 4.113114688917D+01 E-N=-3.437854376441D+02  KE= 1.112519957661D+02
  Exact polarizability:   0.000   0.000   0.000   0.000   0.000   0.000
 Approx polarizability:  25.359   0.000  23.278   4.223   0.000  10.271
 No NMR shielding tensors so no spin-rotation constants.
 Leave Link  601 at Sat Feb 16 13:47:23 2019, MaxMem=   196608000 cpu:         2.8
 (Enter /cm/shared/c3ddb/gaussian/09.d01/g09/l701.exe)
 Compute integral second derivatives.
 ... and contract with generalized density number  0.
 R6Disp: Adding Grimme-D2 dispersion energy 2nd derivatives to the Hessian.
 Leave Link  701 at Sat Feb 16 13:47:23 2019, MaxMem=   196608000 cpu:         3.2
 (Enter /cm/shared/c3ddb/gaussian/09.d01/g09/l702.exe)
 L702 exits ... SP integral derivatives will be done elsewhere.
 Leave Link  702 at Sat Feb 16 13:47:24 2019, MaxMem=   196608000 cpu:         0.2
 (Enter /cm/shared/c3ddb/gaussian/09.d01/g09/l703.exe)
 Compute integral second derivatives, UseDBF=F ICtDFT=           0.
 Integral derivatives from FoFJK, PRISM(SPDF).
 Calling FoFJK, ICntrl=    100547 FMM=F ISym2X=0 I1Cent= 0 IOpClX= 0 NMat=1 NMatS=1 NMatT=0.
 FoFJK:  IHMeth= 1 ICntrl=  100547 DoSepK=F KAlg= 0 I1Cent=   0 FoldK=F
 IRaf=         0 NMat=   1 IRICut=       1 DoRegI=T DoRafI=F ISym2E= 0.
 FoFCou: FMM=F IPFlag=           0 FMFlag=      100000 FMFlg1=         800
         NFxFlg=           0 DoJE=F BraDBF=F KetDBF=F FulRan=T
         wScrn=  0.000000 ICntrl=  100547 IOpCl=  0 I1Cent=           0 NGrid=           0
         NMat0=    1 NMatS0=      1 NMatT0=    0 NMatD0=    1 NMtDS0=    0 NMtDT0=    0
 Symmetry not used in FoFCou.
 Leave Link  703 at Sat Feb 16 13:47:25 2019, MaxMem=   196608000 cpu:         7.8
 (Enter /cm/shared/c3ddb/gaussian/09.d01/g09/l716.exe)
 Dipole        =-3.10826735D-06 9.72783822D-07 5.58262499D-06
 Polarizability= 0.00000000D+00 0.00000000D+00 0.00000000D+00
                 0.00000000D+00 0.00000000D+00 0.00000000D+00
 ***** Axes restored to original set *****
 -------------------------------------------------------------------
 Center     Atomic                   Forces (Hartrees/Bohr)
 Number     Number              X              Y              Z
 -------------------------------------------------------------------
      1        7          -0.031487923    0.000058192   -0.026393839
      2        7           0.031486425   -0.000058789    0.026394914
      3        1           0.009254453   -0.003392037    0.003159021
      4        1           0.009248328    0.003387467    0.003181096
      5        1          -0.009253357    0.003392907   -0.003159636
      6        1          -0.009247926   -0.003387739   -0.003181556
 -------------------------------------------------------------------
 Cartesian Forces:  Max     0.031487923 RMS     0.014538677
 Force constants in Cartesian coordinates: 
                1             2             3             4             5 
      1  0.539791D+00
      2 -0.700928D-04  0.642925D+00
      3 -0.398989D-02  0.159554D-02  0.141485D+00
      4 -0.222060D+00  0.190964D-03 -0.888016D-01  0.539795D+00
      5  0.190975D-03 -0.103968D+00 -0.240312D-03 -0.692738D-04  0.642935D+00
      6 -0.888016D-01 -0.240176D-03 -0.502132D-01 -0.398983D-02  0.159353D-02
      7 -0.137679D+00 -0.132167D+00  0.355456D-01 -0.209634D-01 -0.328306D-01
      8 -0.129984D+00 -0.274256D+00  0.660951D-01  0.826037D-02  0.398302D-02
      9  0.622889D-01  0.129434D+00 -0.465528D-01 -0.163662D-01 -0.207442D-01
     10 -0.138088D+00  0.132151D+00  0.364924D-01 -0.210017D-01  0.327258D-01
     11  0.129797D+00 -0.272598D+00 -0.674818D-01 -0.819472D-02  0.391412D-02
     12  0.633198D-01 -0.130779D+00 -0.478069D-01 -0.164510D-01  0.207341D-01
     13 -0.209634D-01 -0.328306D-01  0.102693D-01 -0.137681D+00 -0.132170D+00
     14  0.826040D-02  0.398308D-02  0.393737D-02 -0.129987D+00 -0.274262D+00
     15 -0.163663D-01 -0.207441D-01  0.149065D-02  0.622894D-01  0.129435D+00
     16 -0.210014D-01  0.327257D-01  0.104842D-01 -0.138089D+00  0.132154D+00
     17 -0.819484D-02  0.391426D-02 -0.390590D-02  0.129800D+00 -0.272602D+00
     18 -0.164509D-01  0.207339D-01  0.159763D-02  0.633192D-01 -0.130778D+00
                6             7             8             9            10 
      6  0.141481D+00
      7  0.102693D-01  0.158438D+00
      8  0.393722D-02  0.141079D+00  0.297583D+00
      9  0.149070D-02 -0.442347D-01 -0.888288D-01  0.481430D-01
     10  0.104841D-01  0.904871D-02 -0.218503D-01 -0.156835D-02  0.158878D+00
     11 -0.390580D-02  0.219209D-01 -0.302149D-01 -0.194040D-01 -0.141011D+00
     12  0.159786D-02 -0.145897D-02  0.192122D-01 -0.471539D-03 -0.452735D-01
     13  0.355463D-01 -0.767003D-02  0.225406D-02 -0.221798D-02 -0.117406D-02
     14  0.660963D-01  0.225410D-02  0.266102D-02 -0.433230D-03  0.240679D-03
     15 -0.465516D-01 -0.221790D-02 -0.433181D-03 -0.429673D-02  0.209831D-02
     16  0.364919D-01 -0.117404D-02  0.240684D-03  0.209831D-02 -0.766302D-02
     17 -0.674811D-01 -0.256242D-03  0.244200D-03 -0.233224D-04 -0.225600D-02
     18 -0.478047D-01  0.209669D-02  0.174174D-04  0.168739D-02 -0.223294D-02
               11            12            13            14            15 
     11  0.296006D+00
     12  0.903410D-01  0.492842D-01
     13 -0.256251D-03  0.209670D-02  0.158439D+00
     14  0.244189D-03  0.173999D-04  0.141082D+00  0.297588D+00
     15 -0.233460D-04  0.168736D-02 -0.442352D-01 -0.888300D-01  0.481420D-01
     16 -0.225594D-02 -0.223309D-02  0.904888D-02 -0.218503D-01 -0.156835D-02
     17  0.264822D-02  0.473998D-03  0.219211D-01 -0.302145D-01 -0.194038D-01
     18  0.473965D-03 -0.429097D-02 -0.145909D-02  0.192122D-01 -0.471610D-03
               16            17            18 
     16  0.158879D+00
     17 -0.141014D+00  0.296010D+00
     18 -0.452729D-01  0.903402D-01  0.492823D-01
 FormGI is forming the generalized inverse of G from B-inverse, IUseBI=4.
 Force constants in internal coordinates: 
                1             2             3             4             5 
      1  0.352503D+00
      2 -0.137025D-02  0.410867D+00
      3 -0.137031D-02 -0.581135D-02  0.410873D+00
      4 -0.137031D-02 -0.193121D-02  0.815034D-03  0.410874D+00
      5 -0.137046D-02  0.815032D-03 -0.193120D-02 -0.581139D-02  0.410877D+00
      6  0.437161D-01  0.117805D-01  0.100570D-02  0.359013D-02 -0.286638D-03
      7  0.437164D-01  0.100564D-02  0.117805D-01 -0.286621D-03  0.359015D-02
      8 -0.278873D-01  0.135174D-01  0.135173D-01 -0.232495D-02 -0.232494D-02
      9  0.437159D-01  0.359005D-02 -0.286643D-03  0.117804D-01  0.100554D-02
     10  0.437156D-01 -0.286657D-03  0.359001D-02  0.100555D-02  0.117804D-01
     11 -0.278875D-01 -0.232497D-02 -0.232496D-02  0.135171D-01  0.135171D-01
     12  0.000000D+00 -0.132632D-01 -0.119902D-01  0.132631D-01  0.119901D-01
     13 -0.187328D-01 -0.124063D-01 -0.111332D-01 -0.111333D-01 -0.124062D-01
     14  0.187328D-01  0.111332D-01  0.124062D-01  0.124062D-01  0.111332D-01
     15  0.000000D+00  0.119902D-01  0.132632D-01 -0.119902D-01 -0.132631D-01
                6             7             8             9            10 
      6  0.161290D+00
      7 -0.391667D-01  0.161291D+00
      8 -0.536119D-01 -0.536119D-01  0.676636D-01
      9  0.257491D-01 -0.118490D-01 -0.504383D-02  0.161289D+00
     10 -0.118490D-01  0.257491D-01 -0.504380D-02 -0.391673D-01  0.161289D+00
     11 -0.504395D-02 -0.504395D-02  0.479089D-02 -0.536121D-01 -0.536119D-01
     12 -0.120788D-02 -0.468734D-02 -0.921976D-02  0.120775D-02  0.468712D-02
     13 -0.343488D-02 -0.691430D-02 -0.899487D-02 -0.691427D-02 -0.343456D-02
     14  0.691431D-02  0.343492D-02  0.899486D-02  0.343475D-02  0.691415D-02
     15  0.468730D-02  0.120796D-02  0.921975D-02 -0.468727D-02 -0.120754D-02
               11            12            13            14            15 
     11  0.676639D-01
     12  0.921951D-02  0.139707D-01
     13 -0.899457D-02 -0.954185D-03  0.163967D-01
     14  0.899455D-02 -0.954569D-03 -0.183055D-01  0.163968D-01
     15 -0.921953D-02 -0.158795D-01 -0.954585D-03 -0.954165D-03  0.139707D-01
 Leave Link  716 at Sat Feb 16 13:47:25 2019, MaxMem=   196608000 cpu:         0.9
 (Enter /cm/shared/c3ddb/gaussian/09.d01/g09/l103.exe)

 GradGradGradGradGradGradGradGradGradGradGradGradGradGradGradGradGradGrad
 Berny optimization.
 Red2BG is reusing G-inverse.
 Internal  Forces:  Max     0.020184626 RMS     0.009841874
 Search for a local minimum.
 Step number   1 out of a maximum of   25
 All quantities printed in internal units (Hartrees-Bohrs-Radians)
 RMS Force = .98419D-02 SwitMx=.10000D-02 MixMth= 1
 Mixed Optimization -- RFO/linear search
 Second derivative matrix not updated -- analytic derivatives used.
 The second derivative matrix:
                          R1        R2        R3        R4        R5
           R1           0.35250
           R2          -0.00137   0.41087
           R3          -0.00137  -0.00581   0.41087
           R4          -0.00137  -0.00193   0.00082   0.41087
           R5          -0.00137   0.00082  -0.00193  -0.00581   0.41088
           A1           0.04372   0.01178   0.00101   0.00359  -0.00029
           A2           0.04372   0.00101   0.01178  -0.00029   0.00359
           A3          -0.02789   0.01352   0.01352  -0.00232  -0.00232
           A4           0.04372   0.00359  -0.00029   0.01178   0.00101
           A5           0.04372  -0.00029   0.00359   0.00101   0.01178
           A6          -0.02789  -0.00232  -0.00232   0.01352   0.01352
           D1           0.00000  -0.01326  -0.01199   0.01326   0.01199
           D2          -0.01873  -0.01241  -0.01113  -0.01113  -0.01241
           D3           0.01873   0.01113   0.01241   0.01241   0.01113
           D4           0.00000   0.01199   0.01326  -0.01199  -0.01326
                          A1        A2        A3        A4        A5
           A1           0.16129
           A2          -0.03917   0.16129
           A3          -0.05361  -0.05361   0.06766
           A4           0.02575  -0.01185  -0.00504   0.16129
           A5          -0.01185   0.02575  -0.00504  -0.03917   0.16129
           A6          -0.00504  -0.00504   0.00479  -0.05361  -0.05361
           D1          -0.00121  -0.00469  -0.00922   0.00121   0.00469
           D2          -0.00343  -0.00691  -0.00899  -0.00691  -0.00343
           D3           0.00691   0.00343   0.00899   0.00343   0.00691
           D4           0.00469   0.00121   0.00922  -0.00469  -0.00121
                          A6        D1        D2        D3        D4
           A6           0.06766
           D1           0.00922   0.01397
           D2          -0.00899  -0.00095   0.01640
           D3           0.00899  -0.00095  -0.01831   0.01640
           D4          -0.00922  -0.01588  -0.00095  -0.00095   0.01397
 ITU=  0
     Eigenvalues ---   -0.00413   0.03798   0.04183   0.15060   0.15784
     Eigenvalues ---    0.16297   0.23684   0.39812   0.40909   0.41130
     Eigenvalues ---    0.41515   0.41963
 Eigenvalue     1 is  -4.13D-03 should be greater than     0.000000 Eigenvector:
                          D2        D1        D4        D3        A5
   1                   -0.49955  -0.49955  -0.49955  -0.49955   0.02096
                          A4        A1        A2        R2        R3
   1                   -0.02096   0.02096  -0.02096  -0.00334   0.00334
 RFO step:  Lambda=-1.03695776D-02 EMin=-4.12647979D-03
 Linear search not attempted -- first point.
 Iteration  1 RMS(Cart)=  0.10269213 RMS(Int)=  0.10101056
 Iteration  2 RMS(Cart)=  0.07633310 RMS(Int)=  0.01428845
 Iteration  3 RMS(Cart)=  0.01071091 RMS(Int)=  0.00607064
 Iteration  4 RMS(Cart)=  0.00012167 RMS(Int)=  0.00606902
 Iteration  5 RMS(Cart)=  0.00000182 RMS(Int)=  0.00606902
 Iteration  6 RMS(Cart)=  0.00000003 RMS(Int)=  0.00606902
 ITry= 1 IFail=0 DXMaxC= 3.01D-01 DCOld= 1.00D+10 DXMaxT= 3.00D-01 DXLimC= 3.00D+00 Rises=F
 Variable       Old X    -DE/DX   Delta X   Delta X   Delta X     New X
                                 (Linear)    (Quad)   (Total)
    R1        2.72324   0.02018   0.00000   0.12636   0.12636   2.84961
    R2        1.93904  -0.00130   0.00000   0.00939   0.00939   1.94843
    R3        1.93904  -0.00130   0.00000   0.00438   0.00438   1.94342
    R4        1.93904  -0.00130   0.00000   0.00438   0.00438   1.94342
    R5        1.93903  -0.00130   0.00000   0.00940   0.00940   1.94843
    A1        1.93654  -0.01398   0.00000  -0.13078  -0.13473   1.80181
    A2        1.93654  -0.01398   0.00000  -0.09934  -0.10304   1.83350
    A3        1.82075   0.01065   0.00000   0.02893   0.01734   1.83809
    A4        1.93654  -0.01398   0.00000  -0.09934  -0.10305   1.83350
    A5        1.93655  -0.01398   0.00000  -0.13078  -0.13473   1.80181
    A6        1.82076   0.01065   0.00000   0.02893   0.01733   1.83809
    D1       -3.14159   0.00000   0.00000   0.37465   0.37465  -2.76693
    D2        1.12595   0.00386   0.00000   0.47870   0.46809   1.59404
    D3       -1.12595  -0.00386   0.00000   0.27062   0.28123  -0.84472
    D4        3.14159   0.00000   0.00000   0.37467   0.37467  -2.76693
         Item               Value     Threshold  Converged?
 Maximum Force            0.020185     0.000450     NO 
 RMS     Force            0.009842     0.000300     NO 
 Maximum Displacement     0.300593     0.001800     NO 
 RMS     Displacement     0.174745     0.001200     NO 
 Predicted change in Energy=-6.811964D-03
 Lowest energy point so far.  Saving SCF results.
 GradGradGradGradGradGradGradGradGradGradGradGradGradGradGradGradGradGrad

 Leave Link  103 at Sat Feb 16 13:47:28 2019, MaxMem=   196608000 cpu:        16.0
 (Enter /cm/shared/c3ddb/gaussian/09.d01/g09/l202.exe)
                          Input orientation:                          
 ---------------------------------------------------------------------
 Center     Atomic      Atomic             Coordinates (Angstroms)
 Number     Number       Type             X           Y           Z
 ---------------------------------------------------------------------
      1          7           0       -0.665570   -0.067540   -0.354365
      2          7           0        0.665677   -0.068759    0.353933
      3          1           0       -1.210650   -0.771033    0.166290
      4          1           0       -1.093267    0.837235   -0.117534
      5          1           0        1.091963    0.838170    0.122867
      6          1           0        1.211846   -0.768074   -0.171190
 ---------------------------------------------------------------------
                    Distance matrix (angstroms):
                    1          2          3          4          5
     1  N    0.000000
     2  N    1.507948   0.000000
     3  H    1.031066   2.012213   0.000000
     4  H    1.028411   2.033958   1.637333   0.000000
     5  H    2.033958   1.028412   2.809528   2.198414   0.000000
     6  H    2.012211   1.031066   2.445892   2.809526   1.637333
                    6
     6  H    0.000000
 Stoichiometry    H4N2
 Framework group  C1[X(H4N2)]
 Deg. of freedom    12
 Full point group                 C1      NOp   1
 RotChk:  IX=1 Diff= 7.10D-02
 Largest Abelian subgroup         C1      NOp   1
 Largest concise Abelian subgroup C1      NOp   1
                         Standard orientation:                         
 ---------------------------------------------------------------------
 Center     Atomic      Atomic             Coordinates (Angstroms)
 Number     Number       Type             X           Y           Z
 ---------------------------------------------------------------------
      1          7           0        0.738906    0.022716   -0.149980
      2          7           0       -0.738906    0.022717    0.149980
      3          1           0        1.113075    0.724125    0.506618
      4          1           0        1.081617   -0.883140    0.195858
      5          1           0       -1.081617   -0.883140   -0.195859
      6          1           0       -1.113073    0.724124   -0.506619
 ---------------------------------------------------------------------
 Rotational constants (GHZ):    135.1119350     23.6480465     22.0582744
 Leave Link  202 at Sat Feb 16 13:47:28 2019, MaxMem=   196608000 cpu:         0.4
 (Enter /cm/shared/c3ddb/gaussian/09.d01/g09/l301.exe)
 Standard basis: 6-31G (6D, 7F)
 Ernie: Thresh=  0.10000D-02 Tol=  0.10000D-05 Strict=F.
 There are    26 symmetry adapted cartesian basis functions of A   symmetry.
 There are    26 symmetry adapted basis functions of A   symmetry.
    26 basis functions,    60 primitive gaussians,    26 cartesian basis functions
     9 alpha electrons        9 beta electrons
       nuclear repulsion energy        40.3887317482 Hartrees.
 IExCor= 3630 DFT=T Ex+Corr=B97D ExCW=0 ScaHFX=  0.000000
 ScaDFX=  1.000000  1.000000  1.000000  1.000000 ScalE2=  1.000000  1.000000
 IRadAn=      0 IRanWt=     -1 IRanGd=            0 ICorTp=0 IEmpDi=121
 NAtoms=    6 NActive=    6 NUniq=    6 SFac= 1.00D+00 NAtFMM=   60 NAOKFM=F Big=F
 Integral buffers will be    131072 words long.
 Raffenetti 2 integral format.
 Two-electron integral symmetry is turned on.
 R6Disp:  Grimme-D2 Dispersion energy=       -0.0017700331 Hartrees.
 Nuclear repulsion after empirical dispersion term =       40.3869617151 Hartrees.
 Leave Link  301 at Sat Feb 16 13:47:28 2019, MaxMem=   196608000 cpu:         0.4
 (Enter /cm/shared/c3ddb/gaussian/09.d01/g09/l302.exe)
 NPDir=0 NMtPBC=     1 NCelOv=     1 NCel=       1 NClECP=     1 NCelD=      1
         NCelK=      1 NCelE2=     1 NClLst=     1 CellRange=     0.0.
 One-electron integrals computed using PRISM.
 NBasis=    26 RedAO= T EigKep=  2.08D-02  NBF=    26
 NBsUse=    26 1.00D-06 EigRej= -1.00D+00 NBFU=    26
 Precomputing XC quadrature grid using
 IXCGrd= 4 IRadAn=           0 IRanWt=          -1 IRanGd=           0 AccXCQ= 0.00D+00.
 Generated NRdTot=       0 NPtTot=           0 NUsed=           0 NTot=          32
 NSgBfM=    26    26    26    26    26 MxSgAt=     6 MxSgA2=     6.
 Leave Link  302 at Sat Feb 16 13:47:28 2019, MaxMem=   196608000 cpu:         2.5
 (Enter /cm/shared/c3ddb/gaussian/09.d01/g09/l303.exe)
 DipDrv:  MaxL=1.
 Leave Link  303 at Sat Feb 16 13:47:29 2019, MaxMem=   196608000 cpu:         1.1
 (Enter /cm/shared/c3ddb/gaussian/09.d01/g09/l401.exe)
 Initial guess from the checkpoint file:  "check.chk"
 B after Tr=     0.000000    0.000000    0.000000
         Rot=    0.999938   -0.000001    0.011180    0.000000 Ang=  -1.28 deg.
 Guess basis will be translated and rotated to current coordinates.
 JPrj=2 DoOrth=T DoCkMO=T.
 Generating alternative initial guess.
 ExpMin= 1.61D-01 ExpMax= 4.17D+03 ExpMxC= 6.27D+02 IAcc=1 IRadAn=         1 AccDes= 0.00D+00
 Harris functional with IExCor= 3630 and IRadAn=       1 diagonalized for initial guess.
 HarFok:  IExCor= 3630 AccDes= 0.00D+00 IRadAn=         1 IDoV= 1 UseB2=F ITyADJ=14
 ICtDFT=  3500011 ScaDFX=  1.000000  1.000000  1.000000  1.000000
 FoFCou: FMM=F IPFlag=           0 FMFlag=      100000 FMFlg1=           0
         NFxFlg=           0 DoJE=T BraDBF=F KetDBF=T FulRan=T
         wScrn=  0.000000 ICntrl=     500 IOpCl=  0 I1Cent=   200000004 NGrid=           0
         NMat0=    1 NMatS0=      1 NMatT0=    0 NMatD0=    1 NMtDS0=    0 NMtDT0=    0
 Petite list used in FoFCou.
 Harris En= -111.784837557662    
 Leave Link  401 at Sat Feb 16 13:47:30 2019, MaxMem=   196608000 cpu:         9.1
 (Enter /cm/shared/c3ddb/gaussian/09.d01/g09/l502.exe)
 Closed shell SCF:
 Using DIIS extrapolation, IDIIS=  1040.
 Integral symmetry usage will be decided dynamically.
 Keep J ints in memory in canonical form, NReq=929948.
 IVT=        8386 IEndB=        8386 NGot=   196608000 MDV=   196537839
 LenX=   196537839 LenY=   196536722
 Requested convergence on RMS density matrix=1.00D-08 within  64 cycles.
 Requested convergence on MAX density matrix=1.00D-06.
 Requested convergence on             energy=1.00D-06.
 No special actions if energy rises.
 FoFCou: FMM=F IPFlag=           0 FMFlag=           0 FMFlg1=           0
         NFxFlg=           0 DoJE=F BraDBF=F KetDBF=F FulRan=T
         wScrn=  0.000000 ICntrl=     600 IOpCl=  0 I1Cent=           0 NGrid=           0
         NMat0=    1 NMatS0=    351 NMatT0=    0 NMatD0=    1 NMtDS0=    0 NMtDT0=    0
 Symmetry not used in FoFCou.
 Integral accuracy reduced to 1.0D-05 until final iterations.

 Cycle   1  Pass 0  IDiag  1:
 E= -111.722246438210    
 DIIS: error= 1.66D-02 at cycle   1 NSaved=   1.
 NSaved= 1 IEnMin= 1 EnMin= -111.722246438210     IErMin= 1 ErrMin= 1.66D-02
 ErrMax= 1.66D-02  0.00D+00 EMaxC= 1.00D-01 BMatC= 9.25D-03 BMatP= 9.25D-03
 IDIUse=3 WtCom= 8.34D-01 WtEn= 1.66D-01
 Coeff-Com:  0.100D+01
 Coeff-En:   0.100D+01
 Coeff:      0.100D+01
 Recover alternate guess density for next cycle.
 RMSDP=1.16D-02 MaxDP=5.89D-02              OVMax= 0.00D+00

 Cycle   2  Pass 0  IDiag  1:
 E= -111.691071185950     Delta-E=        0.031175252260 Rises=F Damp=F
 Switch densities from cycles 1 and 2 for lowest energy.
 DIIS: error= 4.68D-02 at cycle   2 NSaved=   2.
 NSaved= 2 IEnMin= 1 EnMin= -111.722246438210     IErMin= 1 ErrMin= 1.66D-02
 ErrMax= 4.68D-02  0.00D+00 EMaxC= 1.00D+00 BMatC= 5.16D-02 BMatP= 9.25D-03
 IDIUse=1 WtCom= 1.00D+00 WtEn= 0.00D+00
 Coeff-Com:  0.899D+00 0.101D+00
 Coeff:      0.899D+00 0.101D+00
 Gap=     0.224 Goal=   None    Shift=    0.000
 RMSDP=9.85D-03 MaxDP=4.45D-02 DE= 3.12D-02 OVMax= 7.74D-02

 Cycle   3  Pass 0  IDiag  1:
 E= -111.739642621230     Delta-E=       -0.048571435280 Rises=F Damp=F
 DIIS: error= 1.03D-02 at cycle   3 NSaved=   3.
 NSaved= 3 IEnMin= 3 EnMin= -111.739642621230     IErMin= 3 ErrMin= 1.03D-02
 ErrMax= 1.03D-02  0.00D+00 EMaxC= 1.00D+00 BMatC= 2.99D-03 BMatP= 9.25D-03
 IDIUse=1 WtCom= 1.00D+00 WtEn= 0.00D+00
 Coeff-Com:  0.335D-01 0.181D+00 0.786D+00
 Coeff:      0.335D-01 0.181D+00 0.786D+00
 Gap=     0.192 Goal=   None    Shift=    0.000
 RMSDP=2.36D-03 MaxDP=1.29D-02 DE=-4.86D-02 OVMax= 1.77D-02

 Cycle   4  Pass 0  IDiag  1:
 E= -111.742432649663     Delta-E=       -0.002790028433 Rises=F Damp=F
 DIIS: error= 6.58D-04 at cycle   4 NSaved=   4.
 NSaved= 4 IEnMin= 4 EnMin= -111.742432649663     IErMin= 4 ErrMin= 6.58D-04
 ErrMax= 6.58D-04  0.00D+00 EMaxC= 1.00D+00 BMatC= 2.78D-05 BMatP= 2.99D-03
 IDIUse=1 WtCom= 1.00D+00 WtEn= 0.00D+00
 Coeff-Com: -0.140D-02 0.476D-01 0.212D+00 0.742D+00
 Coeff:     -0.140D-02 0.476D-01 0.212D+00 0.742D+00
 Gap=     0.193 Goal=   None    Shift=    0.000
 RMSDP=5.01D-04 MaxDP=2.00D-03 DE=-2.79D-03 OVMax= 3.24D-03

 Cycle   5  Pass 0  IDiag  1:
 E= -111.742478697607     Delta-E=       -0.000046047943 Rises=F Damp=F
 DIIS: error= 1.16D-04 at cycle   5 NSaved=   5.
 NSaved= 5 IEnMin= 5 EnMin= -111.742478697607     IErMin= 5 ErrMin= 1.16D-04
 ErrMax= 1.16D-04  0.00D+00 EMaxC= 1.00D+00 BMatC= 6.49D-07 BMatP= 2.78D-05
 IDIUse=1 WtCom= 1.00D+00 WtEn= 0.00D+00
 Coeff-Com: -0.466D-04 0.645D-02 0.258D-01 0.170D+00 0.797D+00
 Coeff:     -0.466D-04 0.645D-02 0.258D-01 0.170D+00 0.797D+00
 Gap=     0.193 Goal=   None    Shift=    0.000
 RMSDP=5.83D-05 MaxDP=2.21D-04 DE=-4.60D-05 OVMax= 3.52D-04

 Cycle   6  Pass 0  IDiag  1:
 E= -111.742479680956     Delta-E=       -0.000000983349 Rises=F Damp=F
 DIIS: error= 2.14D-05 at cycle   6 NSaved=   6.
 NSaved= 6 IEnMin= 6 EnMin= -111.742479680956     IErMin= 6 ErrMin= 2.14D-05
 ErrMax= 2.14D-05  0.00D+00 EMaxC= 1.00D+00 BMatC= 1.35D-08 BMatP= 6.49D-07
 IDIUse=1 WtCom= 1.00D+00 WtEn= 0.00D+00
 Coeff-Com: -0.318D-04 0.432D-03-0.122D-03 0.160D-01 0.131D+00 0.852D+00
 Coeff:     -0.318D-04 0.432D-03-0.122D-03 0.160D-01 0.131D+00 0.852D+00
 Gap=     0.193 Goal=   None    Shift=    0.000
 RMSDP=6.71D-06 MaxDP=3.76D-05 DE=-9.83D-07 OVMax= 4.54D-05

 Initial convergence to 1.0D-05 achieved.  Increase integral accuracy.
 Cycle   7  Pass 1  IDiag  1:
 E= -111.742497193405     Delta-E=       -0.000017512449 Rises=F Damp=F
 DIIS: error= 5.76D-06 at cycle   1 NSaved=   1.
 NSaved= 1 IEnMin= 1 EnMin= -111.742497193405     IErMin= 1 ErrMin= 5.76D-06
 ErrMax= 5.76D-06  0.00D+00 EMaxC= 1.00D+00 BMatC= 1.19D-09 BMatP= 1.19D-09
 IDIUse=1 WtCom= 1.00D+00 WtEn= 0.00D+00
 Coeff-Com:  0.100D+01
 Coeff:      0.100D+01
 Gap=     0.193 Goal=   None    Shift=    0.000
 RMSDP=6.71D-06 MaxDP=3.76D-05 DE=-1.75D-05 OVMax= 1.84D-05

 Cycle   8  Pass 1  IDiag  1:
 E= -111.742497195214     Delta-E=       -0.000000001809 Rises=F Damp=F
 DIIS: error= 3.16D-06 at cycle   2 NSaved=   2.
 NSaved= 2 IEnMin= 2 EnMin= -111.742497195214     IErMin= 2 ErrMin= 3.16D-06
 ErrMax= 3.16D-06  0.00D+00 EMaxC= 1.00D+00 BMatC= 1.56D-10 BMatP= 1.19D-09
 IDIUse=1 WtCom= 1.00D+00 WtEn= 0.00D+00
 Coeff-Com:  0.174D+00 0.826D+00
 Coeff:      0.174D+00 0.826D+00
 Gap=     0.193 Goal=   None    Shift=    0.000
 RMSDP=9.79D-07 MaxDP=6.66D-06 DE=-1.81D-09 OVMax= 9.45D-06

 Cycle   9  Pass 1  IDiag  1:
 E= -111.742497195080     Delta-E=        0.000000000134 Rises=F Damp=F
 DIIS: error= 4.85D-06 at cycle   3 NSaved=   3.
 NSaved= 3 IEnMin= 2 EnMin= -111.742497195214     IErMin= 2 ErrMin= 3.16D-06
 ErrMax= 4.85D-06  0.00D+00 EMaxC= 1.00D+00 BMatC= 3.22D-10 BMatP= 1.56D-10
 IDIUse=1 WtCom= 1.00D+00 WtEn= 0.00D+00
 Coeff-Com:  0.283D-01 0.583D+00 0.389D+00
 Coeff:      0.283D-01 0.583D+00 0.389D+00
 Gap=     0.193 Goal=   None    Shift=    0.000
 RMSDP=5.68D-07 MaxDP=4.13D-06 DE= 1.34D-10 OVMax= 5.82D-06

 Cycle  10  Pass 1  IDiag  1:
 E= -111.742497195365     Delta-E=       -0.000000000285 Rises=F Damp=F
 DIIS: error= 1.79D-07 at cycle   4 NSaved=   4.
 NSaved= 4 IEnMin= 4 EnMin= -111.742497195365     IErMin= 4 ErrMin= 1.79D-07
 ErrMax= 1.79D-07  0.00D+00 EMaxC= 1.00D+00 BMatC= 8.85D-13 BMatP= 1.56D-10
 IDIUse=1 WtCom= 1.00D+00 WtEn= 0.00D+00
 Coeff-Com:  0.168D-03 0.116D+00 0.103D+00 0.781D+00
 Coeff:      0.168D-03 0.116D+00 0.103D+00 0.781D+00
 Gap=     0.193 Goal=   None    Shift=    0.000
 RMSDP=6.29D-08 MaxDP=3.10D-07 DE=-2.85D-10 OVMax= 4.02D-07

 Cycle  11  Pass 1  IDiag  1:
 E= -111.742497195366     Delta-E=       -0.000000000001 Rises=F Damp=F
 DIIS: error= 7.97D-08 at cycle   5 NSaved=   5.
 NSaved= 5 IEnMin= 5 EnMin= -111.742497195366     IErMin= 5 ErrMin= 7.97D-08
 ErrMax= 7.97D-08  0.00D+00 EMaxC= 1.00D+00 BMatC= 1.92D-13 BMatP= 8.85D-13
 IDIUse=1 WtCom= 1.00D+00 WtEn= 0.00D+00
 Coeff-Com: -0.377D-03 0.473D-01 0.451D-01 0.423D+00 0.484D+00
 Coeff:     -0.377D-03 0.473D-01 0.451D-01 0.423D+00 0.484D+00
 Gap=     0.193 Goal=   None    Shift=    0.000
 RMSDP=1.75D-08 MaxDP=1.22D-07 DE=-7.39D-13 OVMax= 1.20D-07

 Cycle  12  Pass 1  IDiag  1:
 E= -111.742497195366     Delta-E=        0.000000000000 Rises=F Damp=F
 DIIS: error= 1.63D-08 at cycle   6 NSaved=   6.
 NSaved= 6 IEnMin= 6 EnMin= -111.742497195366     IErMin= 6 ErrMin= 1.63D-08
 ErrMax= 1.63D-08  0.00D+00 EMaxC= 1.00D+00 BMatC= 6.87D-15 BMatP= 1.92D-13
 IDIUse=1 WtCom= 1.00D+00 WtEn= 0.00D+00
 Coeff-Com: -0.226D-03 0.140D-01 0.138D-01 0.142D+00 0.235D+00 0.595D+00
 Coeff:     -0.226D-03 0.140D-01 0.138D-01 0.142D+00 0.235D+00 0.595D+00
 Gap=     0.193 Goal=   None    Shift=    0.000
 RMSDP=4.54D-09 MaxDP=1.75D-08 DE=-3.13D-13 OVMax= 2.94D-08

 SCF Done:  E(RB97D) =  -111.742497195     A.U. after   12 cycles
            NFock= 12  Conv=0.45D-08     -V/T= 2.0047
 KE= 1.112224648956D+02 PE=-3.422388494489D+02 EE= 7.888692564279D+01
 Leave Link  502 at Sat Feb 16 13:47:33 2019, MaxMem=   196608000 cpu:        21.9
 (Enter /cm/shared/c3ddb/gaussian/09.d01/g09/l508.exe)
 QCSCF skips out because SCF is already converged.
 Leave Link  508 at Sat Feb 16 13:47:33 2019, MaxMem=   196608000 cpu:         0.0
 (Enter /cm/shared/c3ddb/gaussian/09.d01/g09/l701.exe)
 Compute integral first derivatives.
 ... and contract with generalized density number  0.
 R6Disp: Adding Grimme-D2 dispersion energy 1st derivatives to the gradient.
 Leave Link  701 at Sat Feb 16 13:47:34 2019, MaxMem=   196608000 cpu:         3.3
 (Enter /cm/shared/c3ddb/gaussian/09.d01/g09/l702.exe)
 L702 exits ... SP integral derivatives will be done elsewhere.
 Leave Link  702 at Sat Feb 16 13:47:34 2019, MaxMem=   196608000 cpu:         0.2
 (Enter /cm/shared/c3ddb/gaussian/09.d01/g09/l703.exe)
 Compute integral first derivatives, UseDBF=F ICtDFT=           0.
 Integral derivatives from FoFJK, PRISM(SPDF).
 Calling FoFJK, ICntrl=      2527 FMM=F ISym2X=0 I1Cent= 0 IOpClX= 0 NMat=1 NMatS=1 NMatT=0.
 FoFJK:  IHMeth= 1 ICntrl=    2527 DoSepK=F KAlg= 0 I1Cent=   0 FoldK=F
 IRaf=         0 NMat=   1 IRICut=       1 DoRegI=T DoRafI=F ISym2E= 0.
 FoFCou: FMM=F IPFlag=           0 FMFlag=      100000 FMFlg1=         800
         NFxFlg=           0 DoJE=F BraDBF=F KetDBF=F FulRan=T
         wScrn=  0.000000 ICntrl=    2527 IOpCl=  0 I1Cent=           0 NGrid=           0
         NMat0=    1 NMatS0=      1 NMatT0=    0 NMatD0=    1 NMtDS0=    0 NMtDT0=    0
 Symmetry not used in FoFCou.
 Leave Link  703 at Sat Feb 16 13:47:35 2019, MaxMem=   196608000 cpu:         3.5
 (Enter /cm/shared/c3ddb/gaussian/09.d01/g09/l716.exe)
 Dipole        = 1.04029759D-06-2.91019655D-01-9.08524012D-07
 ***** Axes restored to original set *****
 -------------------------------------------------------------------
 Center     Atomic                   Forces (Hartrees/Bohr)
 Number     Number              X              Y              Z
 -------------------------------------------------------------------
      1        7          -0.008475188   -0.001392198    0.001351529
      2        7           0.008477131   -0.001370397   -0.001360458
      3        1          -0.000955060    0.000242325   -0.002339936
      4        1          -0.001402130    0.001147810   -0.000987468
      5        1           0.001400331    0.001143662    0.000994825
      6        1           0.000954915    0.000228798    0.002341507
 -------------------------------------------------------------------
 Cartesian Forces:  Max     0.008477131 RMS     0.003096543
 Leave Link  716 at Sat Feb 16 13:47:35 2019, MaxMem=   196608000 cpu:         0.3
 (Enter /cm/shared/c3ddb/gaussian/09.d01/g09/l103.exe)

 GradGradGradGradGradGradGradGradGradGradGradGradGradGradGradGradGradGrad
 Berny optimization.
 Using GEDIIS/GDIIS optimizer.
 FormGI is forming the generalized inverse of G from B-inverse, IUseBI=4.
 Internal  Forces:  Max     0.010488913 RMS     0.003369680
 Search for a local minimum.
 Step number   2 out of a maximum of   25
 All quantities printed in internal units (Hartrees-Bohrs-Radians)
 RMS Force = .33697D-02 SwitMx=.10000D-02 MixMth= 1
 Mixed Optimization -- RFO/linear search
 Update second derivatives using D2CorX and points    1    2
 DE= -5.33D-03 DEPred=-6.81D-03 R= 7.82D-01
 TightC=F SS=  1.41D+00  RLast= 8.08D-01 DXNew= 5.0454D-01 2.4248D+00
 Trust test= 7.82D-01 RLast= 8.08D-01 DXMaxT set to 5.05D-01
 The second derivative matrix:
                          R1        R2        R3        R4        R5
           R1           0.30711
           R2           0.00193   0.41063
           R3          -0.00005  -0.00595   0.41126
           R4          -0.00005  -0.00207   0.00121   0.41126
           R5           0.00192   0.00058  -0.00207  -0.00595   0.41064
           A1           0.06287   0.01013   0.00297   0.00555  -0.00194
           A2           0.06447  -0.00073   0.01336   0.00129   0.00186
           A3          -0.04663   0.01501   0.01278  -0.00306  -0.00083
           A4           0.06447   0.00185   0.00129   0.01336  -0.00073
           A5           0.06287  -0.00194   0.00555   0.00297   0.01013
           A6          -0.04663  -0.00083  -0.00306   0.01278   0.01501
           D1           0.00445  -0.01357  -0.01232   0.01294   0.01169
           D2          -0.01679  -0.01243  -0.01233  -0.01233  -0.01243
           D3           0.02569   0.01055   0.01296   0.01296   0.01055
           D4           0.00445   0.01169   0.01294  -0.01232  -0.01357
                          A1        A2        A3        A4        A5
           A1           0.16803
           A2          -0.03510   0.16289
           A3          -0.05321  -0.05154   0.06373
           A4           0.02981  -0.01024  -0.00297   0.16289
           A5          -0.00511   0.02981  -0.00464  -0.03510   0.16803
           A6          -0.00464  -0.00297   0.00085  -0.05154  -0.05321
           D1          -0.00424  -0.00772  -0.00680  -0.00183   0.00165
           D2          -0.01099  -0.01362  -0.00478  -0.01362  -0.01099
           D3           0.00839   0.00407   0.00963   0.00407   0.00839
           D4           0.00165  -0.00183   0.01164  -0.00772  -0.00424
                          A6        D1        D2        D3        D4
           A6           0.06373
           D1           0.01164   0.01362
           D2          -0.00478  -0.00062   0.01937
           D3           0.00963  -0.00198  -0.02061   0.01665
           D4          -0.00680  -0.01623  -0.00062  -0.00198   0.01363
 ITU=  1  0
 Use linear search instead of GDIIS.
     Eigenvalues ---   -0.00821   0.03748   0.04761   0.10261   0.15525
     Eigenvalues ---    0.16358   0.23682   0.39961   0.41126   0.41440
     Eigenvalues ---    0.41515   0.42128
 Eigenvalue     1 is  -8.21D-03 should be greater than     0.000000 Eigenvector:
                          D3        D1        D4        D2        R1
   1                    0.51298   0.49282   0.49282   0.47266  -0.08946
                          A4        A2        A1        A5        A3
   1                    0.08691   0.08691   0.04123   0.04123  -0.02338
 RFO step:  Lambda=-8.24090001D-03 EMin=-8.21445343D-03
 I=     1 Eig=   -8.21D-03 Dot1= -2.71D-04
 I=     1 Stepn= -6.00D-01 RXN=   6.00D-01 EDone=F
 Mixed    1 eigenvectors in step.  Raw Step.Grad=  2.71D-04.
 RFO eigenvector is Hessian eigenvector with negative curvature.
 Taking step of  6.00D-01 in eigenvector direction(s).  Step.Grad= -1.83D-03.
 Quartic linear search produced a step of -0.06056.
 Iteration  1 RMS(Cart)=  0.09041587 RMS(Int)=  0.06277091
 Iteration  2 RMS(Cart)=  0.05279545 RMS(Int)=  0.00180128
 Iteration  3 RMS(Cart)=  0.00163294 RMS(Int)=  0.00008057
 Iteration  4 RMS(Cart)=  0.00000039 RMS(Int)=  0.00008057
 ITry= 1 IFail=0 DXMaxC= 2.43D-01 DCOld= 1.00D+10 DXMaxT= 5.05D-01 DXLimC= 3.00D+00 Rises=F
 Variable       Old X    -DE/DX   Delta X   Delta X   Delta X     New X
                                 (Linear)    (Quad)   (Total)
    R1        2.84961   0.01049  -0.00765   0.05368   0.04603   2.89563
    R2        1.94843  -0.00084  -0.00057  -0.00202  -0.00259   1.94585
    R3        1.94342   0.00137  -0.00027   0.00356   0.00330   1.94671
    R4        1.94342   0.00137  -0.00027   0.00356   0.00330   1.94671
    R5        1.94843  -0.00084  -0.00057  -0.00201  -0.00258   1.94585
    A1        1.80181   0.00412   0.00816  -0.02474  -0.01654   1.78528
    A2        1.83350   0.00257   0.00624  -0.05214  -0.04586   1.78764
    A3        1.83809  -0.00045  -0.00105   0.01403   0.01313   1.85122
    A4        1.83350   0.00257   0.00624  -0.05214  -0.04586   1.78764
    A5        1.80181   0.00412   0.00816  -0.02474  -0.01653   1.78528
    A6        1.83809  -0.00045  -0.00105   0.01402   0.01313   1.85122
    D1       -2.76693  -0.00014  -0.02269  -0.29569  -0.31838  -3.08531
    D2        1.59404  -0.00209  -0.02835  -0.28360  -0.31180   1.28225
    D3       -0.84472   0.00180  -0.01703  -0.30779  -0.32497  -1.16969
    D4       -2.76693  -0.00014  -0.02269  -0.29569  -0.31838  -3.08531
         Item               Value     Threshold  Converged?
 Maximum Force            0.010489     0.000450     NO 
 RMS     Force            0.003370     0.000300     NO 
 Maximum Displacement     0.242809     0.001800     NO 
 RMS     Displacement     0.140611     0.001200     NO 
 Predicted change in Energy=-1.934250D-03
 Lowest energy point so far.  Saving SCF results.
 GradGradGradGradGradGradGradGradGradGradGradGradGradGradGradGradGradGrad

 Leave Link  103 at Sat Feb 16 13:47:37 2019, MaxMem=   196608000 cpu:        11.9
 (Enter /cm/shared/c3ddb/gaussian/09.d01/g09/l202.exe)
                          Input orientation:                          
 ---------------------------------------------------------------------
 Center     Atomic      Atomic             Coordinates (Angstroms)
 Number     Number       Type             X           Y           Z
 ---------------------------------------------------------------------
      1          7           0       -0.670536   -0.010179   -0.370651
      2          7           0        0.670553   -0.011495    0.370584
      3          1           0       -1.152811   -0.818206    0.047417
      4          1           0       -1.133835    0.827078    0.010893
      5          1           0        1.132547    0.828894   -0.005622
      6          1           0        1.154083   -0.816093   -0.052620
 ---------------------------------------------------------------------
                    Distance matrix (angstroms):
                    1          2          3          4          5
     1  N    0.000000
     2  N    1.532303   0.000000
     3  H    1.029698   2.019871   0.000000
     4  H    1.030156   2.021979   1.645799   0.000000
     5  H    2.021979   1.030156   2.817554   2.266443   0.000000
     6  H    2.019870   1.029699   2.309063   2.817555   1.645799
                    6
     6  H    0.000000
 Stoichiometry    H4N2
 Framework group  C1[X(H4N2)]
 Deg. of freedom    12
 Full point group                 C1      NOp   1
 RotChk:  IX=1 Diff= 2.22D-02
 Largest Abelian subgroup         C1      NOp   1
 Largest concise Abelian subgroup C1      NOp   1
                         Standard orientation:                         
 ---------------------------------------------------------------------
 Center     Atomic      Atomic             Coordinates (Angstroms)
 Number     Number       Type             X           Y           Z
 ---------------------------------------------------------------------
      1          7           0        0.750803    0.003612   -0.152586
      2          7           0       -0.750803    0.003612    0.152586
      3          1           0        1.085419    0.809929    0.393458
      4          1           0        1.078612   -0.835215    0.347545
      5          1           0       -1.078611   -0.835215   -0.347547
      6          1           0       -1.085418    0.809930   -0.393459
 ---------------------------------------------------------------------
 Rotational constants (GHZ):    132.7943759     23.2737976     21.6288210
 Leave Link  202 at Sat Feb 16 13:47:37 2019, MaxMem=   196608000 cpu:         0.3
 (Enter /cm/shared/c3ddb/gaussian/09.d01/g09/l301.exe)
 Standard basis: 6-31G (6D, 7F)
 Ernie: Thresh=  0.10000D-02 Tol=  0.10000D-05 Strict=F.
 There are    26 symmetry adapted cartesian basis functions of A   symmetry.
 There are    26 symmetry adapted basis functions of A   symmetry.
    26 basis functions,    60 primitive gaussians,    26 cartesian basis functions
     9 alpha electrons        9 beta electrons
       nuclear repulsion energy        40.1215729134 Hartrees.
 IExCor= 3630 DFT=T Ex+Corr=B97D ExCW=0 ScaHFX=  0.000000
 ScaDFX=  1.000000  1.000000  1.000000  1.000000 ScalE2=  1.000000  1.000000
 IRadAn=      0 IRanWt=     -1 IRanGd=            0 ICorTp=0 IEmpDi=121
 NAtoms=    6 NActive=    6 NUniq=    6 SFac= 1.00D+00 NAtFMM=   60 NAOKFM=F Big=F
 Integral buffers will be    131072 words long.
 Raffenetti 2 integral format.
 Two-electron integral symmetry is turned on.
 R6Disp:  Grimme-D2 Dispersion energy=       -0.0018231758 Hartrees.
 Nuclear repulsion after empirical dispersion term =       40.1197497376 Hartrees.
 Leave Link  301 at Sat Feb 16 13:47:37 2019, MaxMem=   196608000 cpu:         0.4
 (Enter /cm/shared/c3ddb/gaussian/09.d01/g09/l302.exe)
 NPDir=0 NMtPBC=     1 NCelOv=     1 NCel=       1 NClECP=     1 NCelD=      1
         NCelK=      1 NCelE2=     1 NClLst=     1 CellRange=     0.0.
 One-electron integrals computed using PRISM.
 NBasis=    26 RedAO= T EigKep=  2.13D-02  NBF=    26
 NBsUse=    26 1.00D-06 EigRej= -1.00D+00 NBFU=    26
 Precomputing XC quadrature grid using
 IXCGrd= 4 IRadAn=           0 IRanWt=          -1 IRanGd=           0 AccXCQ= 0.00D+00.
 Generated NRdTot=       0 NPtTot=           0 NUsed=           0 NTot=          32
 NSgBfM=    26    26    26    26    26 MxSgAt=     6 MxSgA2=     6.
 Leave Link  302 at Sat Feb 16 13:47:38 2019, MaxMem=   196608000 cpu:         3.4
 (Enter /cm/shared/c3ddb/gaussian/09.d01/g09/l303.exe)
 DipDrv:  MaxL=1.
 Leave Link  303 at Sat Feb 16 13:47:38 2019, MaxMem=   196608000 cpu:         0.7
 (Enter /cm/shared/c3ddb/gaussian/09.d01/g09/l401.exe)
 Initial guess from the checkpoint file:  "check.chk"
 B after Tr=     0.000000    0.000000    0.000000
         Rot=    0.999993    0.000000    0.003868    0.000000 Ang=  -0.44 deg.
 Guess basis will be translated and rotated to current coordinates.
 JPrj=2 DoOrth=T DoCkMO=T.
 Generating alternative initial guess.
 ExpMin= 1.61D-01 ExpMax= 4.17D+03 ExpMxC= 6.27D+02 IAcc=1 IRadAn=         1 AccDes= 0.00D+00
 Harris functional with IExCor= 3630 and IRadAn=       1 diagonalized for initial guess.
 HarFok:  IExCor= 3630 AccDes= 0.00D+00 IRadAn=         1 IDoV= 1 UseB2=F ITyADJ=14
 ICtDFT=  3500011 ScaDFX=  1.000000  1.000000  1.000000  1.000000
 FoFCou: FMM=F IPFlag=           0 FMFlag=      100000 FMFlg1=           0
         NFxFlg=           0 DoJE=T BraDBF=F KetDBF=T FulRan=T
         wScrn=  0.000000 ICntrl=     500 IOpCl=  0 I1Cent=   200000004 NGrid=           0
         NMat0=    1 NMatS0=      1 NMatT0=    0 NMatD0=    1 NMtDS0=    0 NMtDT0=    0
 Petite list used in FoFCou.
 Harris En= -111.783445385393    
 Leave Link  401 at Sat Feb 16 13:47:40 2019, MaxMem=   196608000 cpu:        12.0
 (Enter /cm/shared/c3ddb/gaussian/09.d01/g09/l502.exe)
 Closed shell SCF:
 Using DIIS extrapolation, IDIIS=  1040.
 Integral symmetry usage will be decided dynamically.
 Keep J ints in memory in canonical form, NReq=929948.
 IVT=        8386 IEndB=        8386 NGot=   196608000 MDV=   196537839
 LenX=   196537839 LenY=   196536722
 Requested convergence on RMS density matrix=1.00D-08 within  64 cycles.
 Requested convergence on MAX density matrix=1.00D-06.
 Requested convergence on             energy=1.00D-06.
 No special actions if energy rises.
 FoFCou: FMM=F IPFlag=           0 FMFlag=           0 FMFlg1=           0
         NFxFlg=           0 DoJE=F BraDBF=F KetDBF=F FulRan=T
         wScrn=  0.000000 ICntrl=     600 IOpCl=  0 I1Cent=           0 NGrid=           0
         NMat0=    1 NMatS0=    351 NMatT0=    0 NMatD0=    1 NMtDS0=    0 NMtDT0=    0
 Symmetry not used in FoFCou.
 Integral accuracy reduced to 1.0D-05 until final iterations.

 Cycle   1  Pass 0  IDiag  1:
 E= -111.731831474885    
 DIIS: error= 1.58D-02 at cycle   1 NSaved=   1.
 NSaved= 1 IEnMin= 1 EnMin= -111.731831474885     IErMin= 1 ErrMin= 1.58D-02
 ErrMax= 1.58D-02  0.00D+00 EMaxC= 1.00D-01 BMatC= 4.64D-03 BMatP= 4.64D-03
 IDIUse=3 WtCom= 8.42D-01 WtEn= 1.58D-01
 Coeff-Com:  0.100D+01
 Coeff-En:   0.100D+01
 Coeff:      0.100D+01
 Recover alternate guess density for next cycle.
 RMSDP=1.02D-02 MaxDP=4.65D-02              OVMax= 0.00D+00

 Cycle   2  Pass 0  IDiag  1:
 E= -111.693004159586     Delta-E=        0.038827315298 Rises=F Damp=F
 Switch densities from cycles 1 and 2 for lowest energy.
 DIIS: error= 4.60D-02 at cycle   2 NSaved=   2.
 NSaved= 2 IEnMin= 1 EnMin= -111.731831474885     IErMin= 1 ErrMin= 1.58D-02
 ErrMax= 4.60D-02  0.00D+00 EMaxC= 1.00D+00 BMatC= 4.95D-02 BMatP= 4.64D-03
 IDIUse=1 WtCom= 1.00D+00 WtEn= 0.00D+00
 Coeff-Com:  0.935D+00 0.652D-01
 Coeff:      0.935D+00 0.652D-01
 Gap=     0.221 Goal=   None    Shift=    0.000
 RMSDP=6.82D-03 MaxDP=3.17D-02 DE= 3.88D-02 OVMax= 7.22D-02

 Cycle   3  Pass 0  IDiag  1:
 E= -111.741608848771     Delta-E=       -0.048604689184 Rises=F Damp=F
 DIIS: error= 5.52D-03 at cycle   3 NSaved=   3.
 NSaved= 3 IEnMin= 3 EnMin= -111.741608848771     IErMin= 3 ErrMin= 5.52D-03
 ErrMax= 5.52D-03  0.00D+00 EMaxC= 1.00D+00 BMatC= 8.50D-04 BMatP= 4.64D-03
 IDIUse=1 WtCom= 1.00D+00 WtEn= 0.00D+00
 Coeff-Com:  0.396D-01 0.104D+00 0.856D+00
 Coeff:      0.396D-01 0.104D+00 0.856D+00
 Gap=     0.195 Goal=   None    Shift=    0.000
 RMSDP=1.60D-03 MaxDP=6.35D-03 DE=-4.86D-02 OVMax= 1.14D-02

 Cycle   4  Pass 0  IDiag  1:
 E= -111.742437253123     Delta-E=       -0.000828404353 Rises=F Damp=F
 DIIS: error= 6.37D-04 at cycle   4 NSaved=   4.
 NSaved= 4 IEnMin= 4 EnMin= -111.742437253123     IErMin= 4 ErrMin= 6.37D-04
 ErrMax= 6.37D-04  0.00D+00 EMaxC= 1.00D+00 BMatC= 1.90D-05 BMatP= 8.50D-04
 IDIUse=1 WtCom= 1.00D+00 WtEn= 0.00D+00
 Coeff-Com: -0.134D-03 0.307D-01 0.260D+00 0.710D+00
 Coeff:     -0.134D-03 0.307D-01 0.260D+00 0.710D+00
 Gap=     0.195 Goal=   None    Shift=    0.000
 RMSDP=4.01D-04 MaxDP=1.61D-03 DE=-8.28D-04 OVMax= 2.64D-03

 Cycle   5  Pass 0  IDiag  1:
 E= -111.742469454002     Delta-E=       -0.000032200879 Rises=F Damp=F
 DIIS: error= 8.24D-05 at cycle   5 NSaved=   5.
 NSaved= 5 IEnMin= 5 EnMin= -111.742469454002     IErMin= 5 ErrMin= 8.24D-05
 ErrMax= 8.24D-05  0.00D+00 EMaxC= 1.00D+00 BMatC= 2.61D-07 BMatP= 1.90D-05
 IDIUse=1 WtCom= 1.00D+00 WtEn= 0.00D+00
 Coeff-Com: -0.989D-04 0.438D-02 0.345D-01 0.153D+00 0.808D+00
 Coeff:     -0.989D-04 0.438D-02 0.345D-01 0.153D+00 0.808D+00
 Gap=     0.195 Goal=   None    Shift=    0.000
 RMSDP=3.50D-05 MaxDP=1.25D-04 DE=-3.22D-05 OVMax= 2.39D-04

 Cycle   6  Pass 0  IDiag  1:
 E= -111.742469851898     Delta-E=       -0.000000397896 Rises=F Damp=F
 DIIS: error= 1.25D-05 at cycle   6 NSaved=   6.
 NSaved= 6 IEnMin= 6 EnMin= -111.742469851898     IErMin= 6 ErrMin= 1.25D-05
 ErrMax= 1.25D-05  0.00D+00 EMaxC= 1.00D+00 BMatC= 4.75D-09 BMatP= 2.61D-07
 IDIUse=1 WtCom= 1.00D+00 WtEn= 0.00D+00
 Coeff-Com: -0.312D-04 0.295D-03 0.285D-03 0.105D-01 0.110D+00 0.879D+00
 Coeff:     -0.312D-04 0.295D-03 0.285D-03 0.105D-01 0.110D+00 0.879D+00
 Gap=     0.195 Goal=   None    Shift=    0.000
 RMSDP=4.07D-06 MaxDP=2.45D-05 DE=-3.98D-07 OVMax= 2.76D-05

 Initial convergence to 1.0D-05 achieved.  Increase integral accuracy.
 Cycle   7  Pass 1  IDiag  1:
 E= -111.742497123051     Delta-E=       -0.000027271153 Rises=F Damp=F
 DIIS: error= 5.24D-06 at cycle   1 NSaved=   1.
 NSaved= 1 IEnMin= 1 EnMin= -111.742497123051     IErMin= 1 ErrMin= 5.24D-06
 ErrMax= 5.24D-06  0.00D+00 EMaxC= 1.00D+00 BMatC= 1.05D-09 BMatP= 1.05D-09
 IDIUse=1 WtCom= 1.00D+00 WtEn= 0.00D+00
 Coeff-Com:  0.100D+01
 Coeff:      0.100D+01
 Gap=     0.195 Goal=   None    Shift=    0.000
 RMSDP=4.07D-06 MaxDP=2.45D-05 DE=-2.73D-05 OVMax= 1.89D-05

 Cycle   8  Pass 1  IDiag  1:
 E= -111.742497124269     Delta-E=       -0.000000001219 Rises=F Damp=F
 DIIS: error= 2.29D-06 at cycle   2 NSaved=   2.
 NSaved= 2 IEnMin= 2 EnMin= -111.742497124269     IErMin= 2 ErrMin= 2.29D-06
 ErrMax= 2.29D-06  0.00D+00 EMaxC= 1.00D+00 BMatC= 1.56D-10 BMatP= 1.05D-09
 IDIUse=1 WtCom= 1.00D+00 WtEn= 0.00D+00
 Coeff-Com:  0.213D+00 0.787D+00
 Coeff:      0.213D+00 0.787D+00
 Gap=     0.195 Goal=   None    Shift=    0.000
 RMSDP=7.89D-07 MaxDP=6.10D-06 DE=-1.22D-09 OVMax= 5.50D-06

 Cycle   9  Pass 1  IDiag  1:
 E= -111.742497124288     Delta-E=       -0.000000000019 Rises=F Damp=F
 DIIS: error= 2.13D-06 at cycle   3 NSaved=   3.
 NSaved= 3 IEnMin= 3 EnMin= -111.742497124288     IErMin= 3 ErrMin= 2.13D-06
 ErrMax= 2.13D-06  0.00D+00 EMaxC= 1.00D+00 BMatC= 1.46D-10 BMatP= 1.56D-10
 IDIUse=1 WtCom= 1.00D+00 WtEn= 0.00D+00
 Coeff-Com:  0.255D-01 0.492D+00 0.482D+00
 Coeff:      0.255D-01 0.492D+00 0.482D+00
 Gap=     0.195 Goal=   None    Shift=    0.000
 RMSDP=4.48D-07 MaxDP=3.53D-06 DE=-1.93D-11 OVMax= 3.28D-06

 Cycle  10  Pass 1  IDiag  1:
 E= -111.742497124419     Delta-E=       -0.000000000131 Rises=F Damp=F
 DIIS: error= 5.11D-07 at cycle   4 NSaved=   4.
 NSaved= 4 IEnMin= 4 EnMin= -111.742497124419     IErMin= 4 ErrMin= 5.11D-07
 ErrMax= 5.11D-07  0.00D+00 EMaxC= 1.00D+00 BMatC= 3.85D-12 BMatP= 1.46D-10
 IDIUse=1 WtCom= 1.00D+00 WtEn= 0.00D+00
 Coeff-Com:  0.498D-02 0.221D+00 0.249D+00 0.525D+00
 Coeff:      0.498D-02 0.221D+00 0.249D+00 0.525D+00
 Gap=     0.195 Goal=   None    Shift=    0.000
 RMSDP=9.33D-08 MaxDP=6.94D-07 DE=-1.31D-10 OVMax= 9.49D-07

 Cycle  11  Pass 1  IDiag  1:
 E= -111.742497124422     Delta-E=       -0.000000000003 Rises=F Damp=F
 DIIS: error= 2.50D-07 at cycle   5 NSaved=   5.
 NSaved= 5 IEnMin= 5 EnMin= -111.742497124422     IErMin= 5 ErrMin= 2.50D-07
 ErrMax= 2.50D-07  0.00D+00 EMaxC= 1.00D+00 BMatC= 1.07D-12 BMatP= 3.85D-12
 IDIUse=1 WtCom= 1.00D+00 WtEn= 0.00D+00
 Coeff-Com:  0.150D-03 0.701D-01 0.913D-01 0.360D+00 0.478D+00
 Coeff:      0.150D-03 0.701D-01 0.913D-01 0.360D+00 0.478D+00
 Gap=     0.195 Goal=   None    Shift=    0.000
 RMSDP=3.87D-08 MaxDP=2.57D-07 DE=-2.84D-12 OVMax= 3.08D-07

 Cycle  12  Pass 1  IDiag  1:
 E= -111.742497124423     Delta-E=       -0.000000000001 Rises=F Damp=F
 DIIS: error= 4.94D-09 at cycle   6 NSaved=   6.
 NSaved= 6 IEnMin= 6 EnMin= -111.742497124423     IErMin= 6 ErrMin= 4.94D-09
 ErrMax= 4.94D-09  0.00D+00 EMaxC= 1.00D+00 BMatC= 1.14D-15 BMatP= 1.07D-12
 IDIUse=1 WtCom= 1.00D+00 WtEn= 0.00D+00
 Coeff-Com: -0.457D-04 0.107D-01 0.141D-01 0.630D-01 0.981D-01 0.814D+00
 Coeff:     -0.457D-04 0.107D-01 0.141D-01 0.630D-01 0.981D-01 0.814D+00
 Gap=     0.195 Goal=   None    Shift=    0.000
 RMSDP=2.75D-09 MaxDP=1.08D-08 DE=-1.08D-12 OVMax= 1.82D-08

 SCF Done:  E(RB97D) =  -111.742497124     A.U. after   12 cycles
            NFock= 12  Conv=0.27D-08     -V/T= 2.0048
 KE= 1.112082015879D+02 PE=-3.416926040810D+02 EE= 7.862215563107D+01
 Leave Link  502 at Sat Feb 16 13:47:45 2019, MaxMem=   196608000 cpu:        31.7
 (Enter /cm/shared/c3ddb/gaussian/09.d01/g09/l508.exe)
 QCSCF skips out because SCF is already converged.
 Leave Link  508 at Sat Feb 16 13:47:45 2019, MaxMem=   196608000 cpu:         0.0
 (Enter /cm/shared/c3ddb/gaussian/09.d01/g09/l701.exe)
 Compute integral first derivatives.
 ... and contract with generalized density number  0.
 R6Disp: Adding Grimme-D2 dispersion energy 1st derivatives to the gradient.
 Leave Link  701 at Sat Feb 16 13:47:45 2019, MaxMem=   196608000 cpu:         2.6
 (Enter /cm/shared/c3ddb/gaussian/09.d01/g09/l702.exe)
 L702 exits ... SP integral derivatives will be done elsewhere.
 Leave Link  702 at Sat Feb 16 13:47:45 2019, MaxMem=   196608000 cpu:         0.3
 (Enter /cm/shared/c3ddb/gaussian/09.d01/g09/l703.exe)
 Compute integral first derivatives, UseDBF=F ICtDFT=           0.
 Integral derivatives from FoFJK, PRISM(SPDF).
 Calling FoFJK, ICntrl=      2527 FMM=F ISym2X=0 I1Cent= 0 IOpClX= 0 NMat=1 NMatS=1 NMatT=0.
 FoFJK:  IHMeth= 1 ICntrl=    2527 DoSepK=F KAlg= 0 I1Cent=   0 FoldK=F
 IRaf=         0 NMat=   1 IRICut=       1 DoRegI=T DoRafI=F ISym2E= 0.
 FoFCou: FMM=F IPFlag=           0 FMFlag=      100000 FMFlg1=         800
         NFxFlg=           0 DoJE=F BraDBF=F KetDBF=F FulRan=T
         wScrn=  0.000000 ICntrl=    2527 IOpCl=  0 I1Cent=           0 NGrid=           0
         NMat0=    1 NMatS0=      1 NMatT0=    0 NMatD0=    1 NMtDS0=    0 NMtDT0=    0
 Symmetry not used in FoFCou.
 Leave Link  703 at Sat Feb 16 13:47:46 2019, MaxMem=   196608000 cpu:         2.9
 (Enter /cm/shared/c3ddb/gaussian/09.d01/g09/l716.exe)
 Dipole        = 1.01862543D-06-4.30023618D-02-1.06486861D-06
 ***** Axes restored to original set *****
 -------------------------------------------------------------------
 Center     Atomic                   Forces (Hartrees/Bohr)
 Number     Number              X              Y              Z
[...]
 NSaved= 3 IEnMin= 3 EnMin= -111.742852534030     IErMin= 3 ErrMin= 5.94D-06
 ErrMax= 5.94D-06  0.00D+00 EMaxC= 1.00D-01 BMatC= 1.61D-09 BMatP= 5.67D-09
 IDIUse=1 WtCom= 1.00D+00 WtEn= 0.00D+00
 Coeff-Com:  0.138D-02 0.341D+00 0.657D+00
 Coeff:      0.138D-02 0.341D+00 0.657D+00
 Gap=     0.194 Goal=   None    Shift=    0.000
 RMSDP=3.25D-06 MaxDP=1.29D-05 DE=-7.82D-09 OVMax= 2.11D-05

 Cycle   4  Pass 1  IDiag  1:
 E= -111.742852536490     Delta-E=       -0.000000002461 Rises=F Damp=F
 DIIS: error= 2.13D-06 at cycle   4 NSaved=   4.
 NSaved= 4 IEnMin= 4 EnMin= -111.742852536490     IErMin= 4 ErrMin= 2.13D-06
 ErrMax= 2.13D-06  0.00D+00 EMaxC= 1.00D-01 BMatC= 1.09D-10 BMatP= 1.61D-09
 IDIUse=1 WtCom= 1.00D+00 WtEn= 0.00D+00
 Coeff-Com:  0.558D-04 0.149D+00 0.321D+00 0.530D+00
 Coeff:      0.558D-04 0.149D+00 0.321D+00 0.530D+00
 Gap=     0.194 Goal=   None    Shift=    0.000
 RMSDP=4.71D-07 MaxDP=2.86D-06 DE=-2.46D-09 OVMax= 3.16D-06

 Cycle   5  Pass 1  IDiag  1:
 E= -111.742852536583     Delta-E=       -0.000000000093 Rises=F Damp=F
 DIIS: error= 6.28D-07 at cycle   5 NSaved=   5.
 NSaved= 5 IEnMin= 5 EnMin= -111.742852536583     IErMin= 5 ErrMin= 6.28D-07
 ErrMax= 6.28D-07  0.00D+00 EMaxC= 1.00D-01 BMatC= 1.02D-11 BMatP= 1.09D-10
 IDIUse=1 WtCom= 1.00D+00 WtEn= 0.00D+00
 Coeff-Com: -0.544D-04 0.361D-01 0.838D-01 0.271D+00 0.610D+00
 Coeff:     -0.544D-04 0.361D-01 0.838D-01 0.271D+00 0.610D+00
 Gap=     0.194 Goal=   None    Shift=    0.000
 RMSDP=1.23D-07 MaxDP=6.62D-07 DE=-9.32D-11 OVMax= 8.83D-07

 Cycle   6  Pass 1  IDiag  1:
 E= -111.742852536594     Delta-E=       -0.000000000010 Rises=F Damp=F
 DIIS: error= 7.76D-09 at cycle   6 NSaved=   6.
 NSaved= 6 IEnMin= 6 EnMin= -111.742852536594     IErMin= 6 ErrMin= 7.76D-09
 ErrMax= 7.76D-09  0.00D+00 EMaxC= 1.00D-01 BMatC= 2.36D-15 BMatP= 1.02D-11
 IDIUse=1 WtCom= 1.00D+00 WtEn= 0.00D+00
 Coeff-Com: -0.962D-05 0.953D-03 0.173D-02 0.105D-01 0.331D-01 0.954D+00
 Coeff:     -0.962D-05 0.953D-03 0.173D-02 0.105D-01 0.331D-01 0.954D+00
 Gap=     0.194 Goal=   None    Shift=    0.000
 RMSDP=4.07D-09 MaxDP=1.48D-08 DE=-1.02D-11 OVMax= 2.69D-08

 SCF Done:  E(RB97D) =  -111.742852537     A.U. after    6 cycles
            NFock=  6  Conv=0.41D-08     -V/T= 2.0050
 KE= 1.111854438826D+02 PE=-3.415481117132D+02 EE= 7.857033238569D+01
 Leave Link  502 at Sat Feb 16 13:48:36 2019, MaxMem=   196608000 cpu:        12.7
 (Enter /cm/shared/c3ddb/gaussian/09.d01/g09/l508.exe)
 QCSCF skips out because SCF is already converged.
 Leave Link  508 at Sat Feb 16 13:48:36 2019, MaxMem=   196608000 cpu:         0.0
 (Enter /cm/shared/c3ddb/gaussian/09.d01/g09/l701.exe)
 Compute integral first derivatives.
 ... and contract with generalized density number  0.
 R6Disp: Adding Grimme-D2 dispersion energy 1st derivatives to the gradient.
 Leave Link  701 at Sat Feb 16 13:48:37 2019, MaxMem=   196608000 cpu:         2.5
 (Enter /cm/shared/c3ddb/gaussian/09.d01/g09/l702.exe)
 L702 exits ... SP integral derivatives will be done elsewhere.
 Leave Link  702 at Sat Feb 16 13:48:37 2019, MaxMem=   196608000 cpu:         0.3
 (Enter /cm/shared/c3ddb/gaussian/09.d01/g09/l703.exe)
 Compute integral first derivatives, UseDBF=F ICtDFT=           0.
 Integral derivatives from FoFJK, PRISM(SPDF).
 Calling FoFJK, ICntrl=      2527 FMM=F ISym2X=0 I1Cent= 0 IOpClX= 0 NMat=1 NMatS=1 NMatT=0.
 FoFJK:  IHMeth= 1 ICntrl=    2527 DoSepK=F KAlg= 0 I1Cent=   0 FoldK=F
 IRaf=         0 NMat=   1 IRICut=       1 DoRegI=T DoRafI=F ISym2E= 0.
 FoFCou: FMM=F IPFlag=           0 FMFlag=      100000 FMFlg1=         800
         NFxFlg=           0 DoJE=F BraDBF=F KetDBF=F FulRan=T
         wScrn=  0.000000 ICntrl=    2527 IOpCl=  0 I1Cent=           0 NGrid=           0
         NMat0=    1 NMatS0=      1 NMatT0=    0 NMatD0=    1 NMtDS0=    0 NMtDT0=    0
 Symmetry not used in FoFCou.
 Leave Link  703 at Sat Feb 16 13:48:38 2019, MaxMem=   196608000 cpu:         3.8
 (Enter /cm/shared/c3ddb/gaussian/09.d01/g09/l716.exe)
 Dipole        = 7.79571101D-08 3.39996555D-04-8.87936665D-08
 ***** Axes restored to original set *****
 -------------------------------------------------------------------
 Center     Atomic                   Forces (Hartrees/Bohr)
 Number     Number              X              Y              Z
 -------------------------------------------------------------------
      1        7          -0.000001396   -0.000000146    0.000004989
      2        7           0.000001391   -0.000000112   -0.000005012
      3        1          -0.000000580   -0.000000052    0.000001408
      4        1          -0.000000465    0.000000173    0.000000804
      5        1           0.000000468    0.000000182   -0.000000791
      6        1           0.000000583   -0.000000045   -0.000001397
 -------------------------------------------------------------------
 Cartesian Forces:  Max     0.000005012 RMS     0.000001831
 Leave Link  716 at Sat Feb 16 13:48:38 2019, MaxMem=   196608000 cpu:         0.3
 (Enter /cm/shared/c3ddb/gaussian/09.d01/g09/l103.exe)

 GradGradGradGradGradGradGradGradGradGradGradGradGradGradGradGradGradGrad
 Berny optimization.
 Using GEDIIS/GDIIS optimizer.
 FormGI is forming the generalized inverse of G from B-inverse, IUseBI=4.
 Internal  Forces:  Max     0.000002358 RMS     0.000001248
 Search for a local minimum.
 Step number   9 out of a maximum of   25
 All quantities printed in internal units (Hartrees-Bohrs-Radians)
 RMS Force = .12484D-05 SwitMx=.10000D-02 MixMth= 2
 Mixed Optimization -- En-DIIS/RFO-DIIS
 Swapping is turned off.
 Update second derivatives using D2CorX and points    1    3    4    5    6
                                                      7    8    9
 DE= -8.95D-09 DEPred=-8.08D-09 R= 1.11D+00
 Trust test= 1.11D+00 RLast= 5.08D-03 DXMaxT set to 8.49D-01
 The second derivative matrix:
                          R1        R2        R3        R4        R5
           R1           0.28934
           R2          -0.00044   0.40625
           R3          -0.01043  -0.00239   0.40840
           R4          -0.01043   0.00149  -0.00166   0.40840
           R5          -0.00043  -0.00380   0.00149  -0.00239   0.40626
           A1           0.05829   0.01704  -0.00125   0.00133   0.00497
           A2           0.06519   0.00110   0.01332   0.00125   0.00368
           A3           0.00720   0.01911   0.01077  -0.00507   0.00327
           A4           0.06520   0.00368   0.00125   0.01332   0.00110
           A5           0.05830   0.00497   0.00133  -0.00125   0.01703
           A6           0.00720   0.00327  -0.00507   0.01077   0.01911
           D1          -0.00107  -0.01244  -0.01268   0.01257   0.01281
           D2          -0.02012  -0.00767  -0.01129  -0.01129  -0.00767
           D3           0.01798   0.00804   0.01118   0.01118   0.00804
           D4          -0.00107   0.01281   0.01257  -0.01268  -0.01244
                          A1        A2        A3        A4        A5
           A1           0.17892
           A2          -0.01672   0.18312
           A3          -0.05127  -0.04653   0.06516
           A4           0.04821   0.00998   0.00205   0.18313
           A5           0.00579   0.04821  -0.00269  -0.01670   0.17894
           A6          -0.00270   0.00205   0.00229  -0.04652  -0.05126
           D1          -0.00208  -0.00433  -0.00962   0.00157   0.00382
           D2          -0.00811  -0.00810  -0.01909  -0.00811  -0.00812
           D3           0.00984   0.00533   0.01828   0.00534   0.00985
           D4           0.00381   0.00156   0.00881  -0.00433  -0.00208
                          A6        D1        D2        D3        D4
           A6           0.06516
           D1           0.00882   0.01514
           D2          -0.01910   0.00056   0.02841
           D3           0.01829  -0.00013  -0.02729   0.02702
           D4          -0.00963  -0.01471   0.00056  -0.00014   0.01514
 ITU=  0  0  1  0  1  1  0  1  0
     Eigenvalues ---    0.00068   0.03745   0.06791   0.15489   0.15508
     Eigenvalues ---    0.16851   0.23684   0.38367   0.40960   0.41001
     Eigenvalues ---    0.41126   0.41515
 En-DIIS/RFO-DIIS IScMMF=        0 using points:     9    8    7    6    5
 RFO step:  Lambda=-5.83442667D-11.
 NNeg= 0 NP= 5 Switch=  2.50D-03 Rises=F DC=  4.28D-06 SmlDif=  1.00D-05
 RMS Error=  0.6570729292D-05 NUsed= 5 EDIIS=F
 DidBck=F Rises=F RFO-DIIS coefs:    1.05632   -0.08119    0.02887   -0.00503    0.00104
 Iteration  1 RMS(Cart)=  0.00018462 RMS(Int)=  0.00000002
 Iteration  2 RMS(Cart)=  0.00000002 RMS(Int)=  0.00000000
 ITry= 1 IFail=0 DXMaxC= 3.10D-04 DCOld= 1.00D+10 DXMaxT= 8.49D-01 DXLimC= 3.00D+00 Rises=F
 Variable       Old X    -DE/DX   Delta X   Delta X   Delta X     New X
                                 (Linear)    (Quad)   (Total)
    R1        2.89308   0.00000  -0.00001   0.00000  -0.00001   2.89307
    R2        1.94714   0.00000   0.00000   0.00000   0.00000   1.94713
    R3        1.94714   0.00000   0.00000   0.00000   0.00000   1.94713
    R4        1.94714   0.00000   0.00000   0.00000   0.00000   1.94713
    R5        1.94714   0.00000   0.00000   0.00000   0.00000   1.94713
    A1        1.81312   0.00000   0.00000   0.00000   0.00000   1.81313
    A2        1.81310   0.00000   0.00003   0.00000   0.00003   1.81313
    A3        1.84163   0.00000   0.00001   0.00000   0.00001   1.84165
    A4        1.81310   0.00000   0.00003   0.00000   0.00003   1.81313
    A5        1.81312   0.00000   0.00000   0.00000   0.00000   1.81313
    A6        1.84163   0.00000   0.00001   0.00000   0.00001   1.84165
    D1        3.14115   0.00000   0.00040   0.00002   0.00042   3.14158
    D2        1.21814   0.00000   0.00038   0.00002   0.00040   1.21854
    D3       -1.21902   0.00000   0.00043   0.00002   0.00045  -1.21857
    D4        3.14115   0.00000   0.00040   0.00002   0.00042   3.14158
         Item               Value     Threshold  Converged?
 Maximum Force            0.000002     0.000450     YES
 RMS     Force            0.000001     0.000300     YES
 Maximum Displacement     0.000310     0.001800     YES
 RMS     Displacement     0.000185     0.001200     YES
 Predicted change in Energy=-3.225072D-10
 Optimization completed.
    -- Stationary point found.
                           ----------------------------
                           !   Optimized Parameters   !
                           ! (Angstroms and Degrees)  !
 --------------------------                            --------------------------
 ! Name  Definition              Value          Derivative Info.                !
 --------------------------------------------------------------------------------
 ! R1    R(1,2)                  1.531          -DE/DX =    0.0                 !
 ! R2    R(1,3)                  1.0304         -DE/DX =    0.0                 !
 ! R3    R(1,4)                  1.0304         -DE/DX =    0.0                 !
 ! R4    R(2,5)                  1.0304         -DE/DX =    0.0                 !
 ! R5    R(2,6)                  1.0304         -DE/DX =    0.0                 !
 ! A1    A(2,1,3)              103.8844         -DE/DX =    0.0                 !
 ! A2    A(2,1,4)              103.8829         -DE/DX =    0.0                 !
 ! A3    A(3,1,4)              105.5179         -DE/DX =    0.0                 !
 ! A4    A(1,2,5)              103.8828         -DE/DX =    0.0                 !
 ! A5    A(1,2,6)              103.8844         -DE/DX =    0.0                 !
 ! A6    A(5,2,6)              105.5179         -DE/DX =    0.0                 !
 ! D1    D(3,1,2,5)            179.9748         -DE/DX =    0.0                 !
 ! D2    D(3,1,2,6)             69.7943         -DE/DX =    0.0                 !
 ! D3    D(4,1,2,5)            -69.8448         -DE/DX =    0.0                 !
 ! D4    D(4,1,2,6)            179.9748         -DE/DX =    0.0                 !
 --------------------------------------------------------------------------------
 Lowest energy point so far.  Saving SCF results.
 GradGradGradGradGradGradGradGradGradGradGradGradGradGradGradGradGradGrad

 Largest change from initial coordinates is atom    5       0.090 Angstoms.
 Leave Link  103 at Sat Feb 16 13:48:40 2019, MaxMem=   196608000 cpu:        15.3
 (Enter /cm/shared/c3ddb/gaussian/09.d01/g09/l202.exe)
                          Input orientation:                          
 ---------------------------------------------------------------------
 Center     Atomic      Atomic             Coordinates (Angstroms)
 Number     Number       Type             X           Y           Z
 ---------------------------------------------------------------------
      1          7           0       -0.674726    0.000708   -0.361520
      2          7           0        0.674726   -0.000544    0.361521
      3          1           0       -1.162298   -0.821306    0.023510
      4          1           0       -1.163723    0.819247    0.029067
      5          1           0        1.162447    0.821225   -0.023845
      6          1           0        1.163574   -0.819330   -0.028733
 ---------------------------------------------------------------------
                    Distance matrix (angstroms):
                    1          2          3          4          5
     1  N    0.000000
     2  N    1.530951   0.000000
     3  H    1.030380   2.040235   0.000000
     4  H    1.030380   2.040215   1.640563   0.000000
     5  H    2.040215   1.030380   2.846856   2.326772   0.000000
     6  H    2.040235   1.030380   2.326460   2.846856   1.640563
                    6
     6  H    0.000000
 Stoichiometry    H4N2
 Framework group  C1[X(H4N2)]
 Deg. of freedom    12
 Full point group                 C1      NOp   1
 RotChk:  IX=2 Diff= 1.47D-15
 Largest Abelian subgroup         C1      NOp   1
 Largest concise Abelian subgroup C1      NOp   1
                         Standard orientation:                         
 ---------------------------------------------------------------------
 Center     Atomic      Atomic             Coordinates (Angstroms)
 Number     Number       Type             X           Y           Z
 ---------------------------------------------------------------------
      1          7           0        0.750280   -0.000027   -0.151764
      2          7           0       -0.750280   -0.000027    0.151764
      3          1           0        1.106083    0.820378    0.360118
      4          1           0        1.106129   -0.820186    0.360481
      5          1           0       -1.106129   -0.820186   -0.360481
      6          1           0       -1.106083    0.820378   -0.360118
 ---------------------------------------------------------------------
 Rotational constants (GHZ):    134.6420572     23.1127853     21.4714154
 Leave Link  202 at Sat Feb 16 13:48:40 2019, MaxMem=   196608000 cpu:         0.6
 (Enter /cm/shared/c3ddb/gaussian/09.d01/g09/l601.exe)
 Copying SCF densities to generalized density rwf, IOpCl= 0 IROHF=0.

 **********************************************************************

            Population analysis using the SCF density.

 **********************************************************************

 Orbital symmetries:
       Occupied  (A) (A) (A) (A) (A) (A) (A) (A) (A)
       Virtual   (A) (A) (A) (A) (A) (A) (A) (A) (A) (A) (A) (A)
                 (A) (A) (A) (A) (A)
 The electronic state is 1-A.
 Alpha  occ. eigenvalues --  -14.01268 -14.01262  -0.85465  -0.69389  -0.46268
 Alpha  occ. eigenvalues --   -0.38692  -0.37053  -0.27202  -0.14276
 Alpha virt. eigenvalues --    0.05155   0.05800   0.12109   0.13337   0.14225
 Alpha virt. eigenvalues --    0.63891   0.65208   0.70357   0.72132   0.72291
 Alpha virt. eigenvalues --    0.79078   0.87749   0.88445   0.90318   0.90861
 Alpha virt. eigenvalues --    1.23228   1.49593
          Condensed to atoms (all electrons):
               1          2          3          4          5          6
     1  N    6.906364   0.159981   0.299863   0.299866  -0.043177  -0.043159
     2  N    0.159981   6.906364  -0.043159  -0.043177   0.299866   0.299863
     3  H    0.299863  -0.043159   0.490577  -0.038806   0.005953  -0.004288
     4  H    0.299866  -0.043177  -0.038806   0.490561  -0.004276   0.005953
     5  H   -0.043177   0.299866   0.005953  -0.004276   0.490561  -0.038806
     6  H   -0.043159   0.299863  -0.004288   0.005953  -0.038806   0.490577
 Mulliken charges:
               1
     1  N   -0.579739
     2  N   -0.579739
     3  H    0.289860
     4  H    0.289879
     5  H    0.289879
     6  H    0.289860
 Sum of Mulliken charges =   0.00000
 Mulliken charges with hydrogens summed into heavy atoms:
               1
     1  N    0.000000
     2  N    0.000000
 Electronic spatial extent (au):  <R**2>=             86.6518
 Charge=              0.0000 electrons
 Dipole moment (field-independent basis, Debye):
    X=              0.0000    Y=              0.0009    Z=              0.0000  Tot=              0.0009
 Quadrupole moment (field-independent basis, Debye-Ang):
   XX=            -12.0873   YY=            -10.3630   ZZ=            -15.7690
   XY=              0.0000   XZ=              4.4342   YZ=              0.0000
 Traceless Quadrupole moment (field-independent basis, Debye-Ang):
   XX=              0.6525   YY=              2.3768   ZZ=             -3.0292
   XY=              0.0000   XZ=              4.4342   YZ=              0.0000
 Octapole moment (field-independent basis, Debye-Ang**2):
  XXX=              0.0000  YYY=              0.0013  ZZZ=              0.0000  XYY=              0.0000
  XXY=              0.0009  XXZ=              0.0000  XZZ=              0.0000  YZZ=             -0.0001
  YYZ=              0.0000  XYZ=             -0.0012
 Hexadecapole moment (field-independent basis, Debye-Ang**3):
 XXXX=            -62.7631 YYYY=            -17.4566 ZZZZ=            -18.5916 XXXY=              0.0000
 XXXZ=              6.7298 YYYX=              0.0000 YYYZ=              0.0000 ZZZX=              3.8922
 ZZZY=              0.0000 XXYY=            -10.8500 XXZZ=            -15.6171 YYZZ=             -5.8018
 XXYZ=              0.0000 YYXZ=              2.2681 ZZXY=              0.0000
 N-N= 4.004948290833D+01 E-N=-3.415481117917D+02  KE= 1.111854438826D+02
 No NMR shielding tensors so no spin-rotation constants.
 Leave Link  601 at Sat Feb 16 13:48:41 2019, MaxMem=   196608000 cpu:         4.0
 (Enter /cm/shared/c3ddb/gaussian/09.d01/g09/l9999.exe)
 1\1\GINC-NODE024\FOpt\RB97D\6-31G\H4N2\DUMINDA\16-Feb-2019\0\\#P opt=c
 alcfc b97d/6-31g scf=xqc\\name\\0,1\N,-0.6747260201,0.0007081944,-0.36
 15202195\N,0.6747259431,-0.000543738,0.3615208828\H,-1.1622980742,-0.8
 213062269,0.0235100068\H,-1.1637228942,0.8192470479,0.0290670221\H,1.1
 624466314,0.821225143,-0.0238447313\H,1.163574414,-0.8193304203,-0.028
 7329608\\Version=AS64L-G09RevD.01\State=1-A\HF=-111.7428525\RMSD=4.070
 e-09\RMSF=1.831e-06\Dipole=0.0000002,-0.00034,-0.0000012\Quadrupole=2.
 0771622,1.7670128,-3.8441751,0.0065889,-1.9939667,0.0163118\PG=C01 [X(
 H4N2)]\\@


 I MET A TRAVELLER FROM AN ANTIQUE LAND
 WHO SAID... TWO VAST AND TRUNKLESS LEGS OF STONE
 STAND IN THE DESERT..... NEAR THEM,  ON THE SAND,
 HALF SUNK,  A SHATTERED VISAGE LIES,  WHOSE FROWN,
 AND WRINKLED LIP,  AND SNEER OF COLD COMMAND
 TELL THAT ITS SCULPTOR WELL THOSE PASSIONS READ
 WHICH YET SURVIVE,  STAMPED ON THESE LIFELESS THINGS
 THE HAND THAT MOCKED THEM,  AND THE HEART THAT FED-
 AND ON THE PEDESTAL THESE WORDS APPEAR 
 MY NAME IS OZYMANDIAS, KING OF KINGS--   
 LOOK ON MY WORKS YE MIGHTY AND DESPAIR. 
 NOTHING BESIDE REMAINS,  ROUND THE DECAY 
 OF THAT COLOSSAL WRECK,  BOUNDLESS AND BARE
 THE LONE AND LEVEL SANDS STRETCH FAR AWAY.
                                    SHELLEY
 Job cpu time:       0 days  0 hours  9 minutes  6.6 seconds.
 File lengths (MBytes):  RWF=      5 Int=      0 D2E=      0 Chk=      1 Scr=      1
 Normal termination of Gaussian 09 at Sat Feb 16 13:48:41 2019.
